;
;   File pamam_g1.5dp_dglucose.itp  was generated
;   By user: sairam (1000)
;   On host: sairam
;   At date: Thu. January  4 21:05:42 2025
;
;   This is a standalone topology file
;
;   Created by:
;   ParmEd:       amb2gro_top_gro.py, VERSION 3.4.1
;   Executable:   amb2gro_top_gro.py
;   Library dir:  /usr/local/gromacs/share/gromacs/top
;   Command line:
;     ./amb2gro_top_gro.py -p pamam_g1.5dp_dglucose.prmtop -c pamam_g1.5dp_dglucose.inpcrd -t pamam_g1.5dp_dglucose.itp -g pamam_g1.5dp_dglucose.gro -b pamam_g1.5dp_dglucose.pdb
;

;[ defaults ]
;; nbfunc        comb-rule       gen-pairs       fudgeLJ fudgeQQ
;1               2               yes             0.5          0.83333333  
;
;[ atomtypes ]
;; name    at.num    mass    charge ptype  sigma      epsilon
;n4             7  14.010000  0.00000000  A     0.32499985        0.71128
;c3             6  12.010000  0.00000000  A     0.33996695      0.4577296
;c              6  12.010000  0.00000000  A     0.33996695       0.359824
;o              8  16.000000  0.00000000  A     0.29599219        0.87864
;hx             1   1.008000  0.00000000  A     0.19599772      0.0656888
;hc             1   1.008000  0.00000000  A     0.26495328      0.0656888
;hn             1   1.008000  0.00000000  A     0.10690785      0.0656888
;n              7  14.010000  0.00000000  A     0.32499985        0.71128
;h1             1   1.008000  0.00000000  A      0.2471353      0.0656888
;h2             1   1.008000  0.00000000  A     0.22931733      0.0656888
;oh             8  16.000000  0.00000000  A     0.30664734      0.8803136
;ho             1   1.008000  0.00000000  A              0              0
;os             8  16.000000  0.00000000  A     0.30000123        0.71128
;n3             7  14.010000  0.00000000  A     0.32499985        0.71128


[ moleculetype ]
; Name            nrexcl
pamam_g1.5dp_dglucose          3

[ atoms ]
;   nr       type  resnr residue  atom   cgnr    charge       mass  typeB    chargeB      massB
; residue    1 aaa rtp aaa q 2.0
    1         n4      1    aaa     N1      1 -0.01815100  14.010000   ; qtot -0.018151
    2         c3      1    aaa     C1      2 0.01243000  12.010000   ; qtot -0.005721
    3         c3      1    aaa     C2      3 0.01243000  12.010000   ; qtot 0.006709
    4         n4      1    aaa     N2      4 -0.01815100  14.010000   ; qtot -0.011442
    5         c3      1    aaa     C3      5 -0.01431700  12.010000   ; qtot -0.025759
    6         c3      1    aaa     C4      6 -0.01431700  12.010000   ; qtot -0.040076
    7         c3      1    aaa     C5      7 -0.01431700  12.010000   ; qtot -0.054393
    8         c3      1    aaa     C6      8 -0.01431700  12.010000   ; qtot -0.068710
    9         c3      1    aaa     C7      9 -0.26758200  12.010000   ; qtot -0.336292
   10          c      1    aaa     C8     10 0.71337400  12.010000   ; qtot 0.377082
   11         c3      1    aaa     C9     11 -0.26758200  12.010000   ; qtot 0.109500
   12          c      1    aaa    C10     12 0.71337400  12.010000   ; qtot 0.822874
   13         c3      1    aaa    C11     13 -0.26758200  12.010000   ; qtot 0.555292
   14          c      1    aaa    C12     14 0.71337400  12.010000   ; qtot 1.268666
   15         c3      1    aaa    C13     15 -0.26758200  12.010000   ; qtot 1.001084
   16          c      1    aaa    C14     16 0.71337400  12.010000   ; qtot 1.714458
   17          o      1    aaa     O1     17 -0.55531800  16.000000   ; qtot 1.159140
   18          o      1    aaa     O2     18 -0.55531800  16.000000   ; qtot 0.603822
   19          o      1    aaa     O3     19 -0.55531800  16.000000   ; qtot 0.048504
   20          o      1    aaa     O4     20 -0.55531800  16.000000   ; qtot -0.506814
   21         hx      1    aaa     H1     21 0.08276100   1.008000   ; qtot -0.424053
   22         hx      1    aaa     H2     22 0.08276100   1.008000   ; qtot -0.341292
   23         hx      1    aaa     H3     23 0.08276100   1.008000   ; qtot -0.258531
   24         hx      1    aaa     H4     24 0.08276100   1.008000   ; qtot -0.175770
   25         hx      1    aaa     H5     25 0.10467000   1.008000   ; qtot -0.071100
   26         hx      1    aaa     H6     26 0.10467000   1.008000   ; qtot 0.033570
   27         hx      1    aaa     H7     27 0.10467000   1.008000   ; qtot 0.138240
   28         hx      1    aaa     H8     28 0.10467000   1.008000   ; qtot 0.242910
   29         hx      1    aaa     H9     29 0.10467000   1.008000   ; qtot 0.347580
   30         hx      1    aaa    H10     30 0.10467000   1.008000   ; qtot 0.452250
   31         hx      1    aaa    H11     31 0.10467000   1.008000   ; qtot 0.556920
   32         hx      1    aaa    H12     32 0.10467000   1.008000   ; qtot 0.661590
   33         hc      1    aaa    H13     33 0.11830200   1.008000   ; qtot 0.779892
   34         hc      1    aaa    H14     34 0.11830200   1.008000   ; qtot 0.898194
   35         hc      1    aaa    H15     35 0.11830200   1.008000   ; qtot 1.016496
   36         hc      1    aaa    H16     36 0.11830200   1.008000   ; qtot 1.134798
   37         hc      1    aaa    H17     37 0.11830200   1.008000   ; qtot 1.253100
   38         hc      1    aaa    H18     38 0.11830200   1.008000   ; qtot 1.371402
   39         hc      1    aaa    H19     39 0.11830200   1.008000   ; qtot 1.489704
   40         hc      1    aaa    H20     40 0.11830200   1.008000   ; qtot 1.608006
   41         hn      1    aaa    H37     41 0.19599700   1.008000   ; qtot 1.804003
   42         hn      1    aaa    H38     42 0.19599700   1.008000   ; qtot 2.000000
; residue    2 bbb rtp bbb q 1.0
   43         n4      2    bbb     N1     43 -0.02747900  14.010000   ; qtot 1.972521
   44         c3      2    bbb     C1     44 -0.05097600  12.010000   ; qtot 1.921545
   45         c3      2    bbb     C2     45 -0.05097600  12.010000   ; qtot 1.870569
   46         c3      2    bbb     C3     46 -0.18457900  12.010000   ; qtot 1.685990
   47          c      2    bbb     C4     47 0.67254400  12.010000   ; qtot 2.358534
   48         c3      2    bbb     C5     48 -0.18457900  12.010000   ; qtot 2.173955
   49          c      2    bbb     C6     49 0.67254400  12.010000   ; qtot 2.846499
   50         c3      2    bbb     C7     50 -0.02083000  12.010000   ; qtot 2.825669
   51         c3      2    bbb     C8     51 -0.03328100  12.010000   ; qtot 2.792388
   52          n      2    bbb     N2     52 -0.33303000  14.010000   ; qtot 2.459358
   53          o      2    bbb     O1     53 -0.52917200  16.000000   ; qtot 1.930186
   54          o      2    bbb     O2     54 -0.52917200  16.000000   ; qtot 1.401014
   55         hx      2    bbb     H1     55 0.11563300   1.008000   ; qtot 1.516647
   56         hx      2    bbb     H2     56 0.11563300   1.008000   ; qtot 1.632280
   57         hx      2    bbb     H3     57 0.11563300   1.008000   ; qtot 1.747913
   58         hx      2    bbb     H4     58 0.11563300   1.008000   ; qtot 1.863546
   59         hc      2    bbb     H5     59 0.08347900   1.008000   ; qtot 1.947025
   60         hc      2    bbb     H6     60 0.08347900   1.008000   ; qtot 2.030504
   61         hc      2    bbb     H7     61 0.08347900   1.008000   ; qtot 2.113983
   62         hc      2    bbb     H8     62 0.08347900   1.008000   ; qtot 2.197462
   63         hx      2    bbb     H9     63 0.07988000   1.008000   ; qtot 2.277342
   64         hx      2    bbb    H10     64 0.07988000   1.008000   ; qtot 2.357222
   65         h1      2    bbb    H11     65 0.10618100   1.008000   ; qtot 2.463403
   66         h1      2    bbb    H12     66 0.10618100   1.008000   ; qtot 2.569584
   67         hn      2    bbb    H13     67 0.25916100   1.008000   ; qtot 2.828745
   68         hn      2    bbb    H25     68 0.17125500   1.008000   ; qtot 3.000000
; residue    3 bbb rtp bbb q 1.0
   69         n4      3    bbb     N1     69 -0.02747900  14.010000   ; qtot 2.972521
   70         c3      3    bbb     C1     70 -0.05097600  12.010000   ; qtot 2.921545
   71         c3      3    bbb     C2     71 -0.05097600  12.010000   ; qtot 2.870569
   72         c3      3    bbb     C3     72 -0.18457900  12.010000   ; qtot 2.685990
   73          c      3    bbb     C4     73 0.67254400  12.010000   ; qtot 3.358534
   74         c3      3    bbb     C5     74 -0.18457900  12.010000   ; qtot 3.173955
   75          c      3    bbb     C6     75 0.67254400  12.010000   ; qtot 3.846499
   76         c3      3    bbb     C7     76 -0.02083000  12.010000   ; qtot 3.825669
   77         c3      3    bbb     C8     77 -0.03328100  12.010000   ; qtot 3.792388
   78          n      3    bbb     N2     78 -0.33303000  14.010000   ; qtot 3.459358
   79          o      3    bbb     O1     79 -0.52917200  16.000000   ; qtot 2.930186
   80          o      3    bbb     O2     80 -0.52917200  16.000000   ; qtot 2.401014
   81         hx      3    bbb     H1     81 0.11563300   1.008000   ; qtot 2.516647
   82         hx      3    bbb     H2     82 0.11563300   1.008000   ; qtot 2.632280
   83         hx      3    bbb     H3     83 0.11563300   1.008000   ; qtot 2.747913
   84         hx      3    bbb     H4     84 0.11563300   1.008000   ; qtot 2.863546
   85         hc      3    bbb     H5     85 0.08347900   1.008000   ; qtot 2.947025
   86         hc      3    bbb     H6     86 0.08347900   1.008000   ; qtot 3.030504
   87         hc      3    bbb     H7     87 0.08347900   1.008000   ; qtot 3.113983
   88         hc      3    bbb     H8     88 0.08347900   1.008000   ; qtot 3.197462
   89         hx      3    bbb     H9     89 0.07988000   1.008000   ; qtot 3.277342
   90         hx      3    bbb    H10     90 0.07988000   1.008000   ; qtot 3.357222
   91         h1      3    bbb    H11     91 0.10618100   1.008000   ; qtot 3.463403
   92         h1      3    bbb    H12     92 0.10618100   1.008000   ; qtot 3.569584
   93         hn      3    bbb    H13     93 0.25916100   1.008000   ; qtot 3.828745
   94         hn      3    bbb    H25     94 0.17125500   1.008000   ; qtot 4.000000
; residue    4 bbb rtp bbb q 1.0
   95         n4      4    bbb     N1     95 -0.02747900  14.010000   ; qtot 3.972521
   96         c3      4    bbb     C1     96 -0.05097600  12.010000   ; qtot 3.921545
   97         c3      4    bbb     C2     97 -0.05097600  12.010000   ; qtot 3.870569
   98         c3      4    bbb     C3     98 -0.18457900  12.010000   ; qtot 3.685990
   99          c      4    bbb     C4     99 0.67254400  12.010000   ; qtot 4.358534
  100         c3      4    bbb     C5    100 -0.18457900  12.010000   ; qtot 4.173955
  101          c      4    bbb     C6    101 0.67254400  12.010000   ; qtot 4.846499
  102         c3      4    bbb     C7    102 -0.02083000  12.010000   ; qtot 4.825669
  103         c3      4    bbb     C8    103 -0.03328100  12.010000   ; qtot 4.792388
  104          n      4    bbb     N2    104 -0.33303000  14.010000   ; qtot 4.459358
  105          o      4    bbb     O1    105 -0.52917200  16.000000   ; qtot 3.930186
  106          o      4    bbb     O2    106 -0.52917200  16.000000   ; qtot 3.401014
  107         hx      4    bbb     H1    107 0.11563300   1.008000   ; qtot 3.516647
  108         hx      4    bbb     H2    108 0.11563300   1.008000   ; qtot 3.632280
  109         hx      4    bbb     H3    109 0.11563300   1.008000   ; qtot 3.747913
  110         hx      4    bbb     H4    110 0.11563300   1.008000   ; qtot 3.863546
  111         hc      4    bbb     H5    111 0.08347900   1.008000   ; qtot 3.947025
  112         hc      4    bbb     H6    112 0.08347900   1.008000   ; qtot 4.030504
  113         hc      4    bbb     H7    113 0.08347900   1.008000   ; qtot 4.113983
  114         hc      4    bbb     H8    114 0.08347900   1.008000   ; qtot 4.197462
  115         hx      4    bbb     H9    115 0.07988000   1.008000   ; qtot 4.277342
  116         hx      4    bbb    H10    116 0.07988000   1.008000   ; qtot 4.357222
  117         h1      4    bbb    H11    117 0.10618100   1.008000   ; qtot 4.463403
  118         h1      4    bbb    H12    118 0.10618100   1.008000   ; qtot 4.569584
  119         hn      4    bbb    H13    119 0.25916100   1.008000   ; qtot 4.828745
  120         hn      4    bbb    H25    120 0.17125500   1.008000   ; qtot 5.000000
; residue    5 bbb rtp bbb q 1.0
  121         n4      5    bbb     N1    121 -0.02747900  14.010000   ; qtot 4.972521
  122         c3      5    bbb     C1    122 -0.05097600  12.010000   ; qtot 4.921545
  123         c3      5    bbb     C2    123 -0.05097600  12.010000   ; qtot 4.870569
  124         c3      5    bbb     C3    124 -0.18457900  12.010000   ; qtot 4.685990
  125          c      5    bbb     C4    125 0.67254400  12.010000   ; qtot 5.358534
  126         c3      5    bbb     C5    126 -0.18457900  12.010000   ; qtot 5.173955
  127          c      5    bbb     C6    127 0.67254400  12.010000   ; qtot 5.846499
  128         c3      5    bbb     C7    128 -0.02083000  12.010000   ; qtot 5.825669
  129         c3      5    bbb     C8    129 -0.03328100  12.010000   ; qtot 5.792388
  130          n      5    bbb     N2    130 -0.33303000  14.010000   ; qtot 5.459358
  131          o      5    bbb     O1    131 -0.52917200  16.000000   ; qtot 4.930186
  132          o      5    bbb     O2    132 -0.52917200  16.000000   ; qtot 4.401014
  133         hx      5    bbb     H1    133 0.11563300   1.008000   ; qtot 4.516647
  134         hx      5    bbb     H2    134 0.11563300   1.008000   ; qtot 4.632280
  135         hx      5    bbb     H3    135 0.11563300   1.008000   ; qtot 4.747913
  136         hx      5    bbb     H4    136 0.11563300   1.008000   ; qtot 4.863546
  137         hc      5    bbb     H5    137 0.08347900   1.008000   ; qtot 4.947025
  138         hc      5    bbb     H6    138 0.08347900   1.008000   ; qtot 5.030504
  139         hc      5    bbb     H7    139 0.08347900   1.008000   ; qtot 5.113983
  140         hc      5    bbb     H8    140 0.08347900   1.008000   ; qtot 5.197462
  141         hx      5    bbb     H9    141 0.07988000   1.008000   ; qtot 5.277342
  142         hx      5    bbb    H10    142 0.07988000   1.008000   ; qtot 5.357222
  143         h1      5    bbb    H11    143 0.10618100   1.008000   ; qtot 5.463403
  144         h1      5    bbb    H12    144 0.10618100   1.008000   ; qtot 5.569584
  145         hn      5    bbb    H13    145 0.25916100   1.008000   ; qtot 5.828745
  146         hn      5    bbb    H25    146 0.17125500   1.008000   ; qtot 6.000000
; residue    6 ccc rtp ccc q 1.0
  147          n      6    ccc     N1    147 -0.33303000  14.010000   ; qtot 5.666970
  148         hn      6    ccc     H4    148 0.25916100   1.008000   ; qtot 5.926131
  149         c3      6    ccc     C3    149 -0.03328100  12.010000   ; qtot 5.892850
  150         h1      6    ccc     H5    150 0.10618100   1.008000   ; qtot 5.999031
  151         c3      6    ccc     C4    151 -0.02083000  12.010000   ; qtot 5.978201
  152         h1      6    ccc     H6    152 0.10618100   1.008000   ; qtot 6.084382
  153         h1      6    ccc     H7    153 0.07988000   1.008000   ; qtot 6.164262
  154         h1      6    ccc     H8    154 0.07988000   1.008000   ; qtot 6.244142
  155         n4      6    ccc     N2    155 -0.02747900  14.010000   ; qtot 6.216663
  156         c3      6    ccc     C5    156 -0.05097600  12.010000   ; qtot 6.165687
  157         c3      6    ccc     C6    157 -0.05097600  12.010000   ; qtot 6.114711
  158         h1      6    ccc     H9    158 0.11563300   1.008000   ; qtot 6.230344
  159         c3      6    ccc     C7    159 -0.18457900  12.010000   ; qtot 6.045765
  160         h1      6    ccc    H10    160 0.11563300   1.008000   ; qtot 6.161398
  161         hc      6    ccc    H11    161 0.08347900   1.008000   ; qtot 6.244877
  162         hc      6    ccc    H12    162 0.08347900   1.008000   ; qtot 6.328356
  163          c      6    ccc     C8    163 0.67254400  12.010000   ; qtot 7.000900
  164          o      6    ccc     O2    164 -0.52917200  16.000000   ; qtot 6.471728
  165         h1      6    ccc    H13    165 0.11563300   1.008000   ; qtot 6.587361
  166         h1      6    ccc    H14    166 0.11563300   1.008000   ; qtot 6.702994
  167         c3      6    ccc     C9    167 -0.18457900  12.010000   ; qtot 6.518415
  168         hc      6    ccc    H15    168 0.08347900   1.008000   ; qtot 6.601894
  169         hc      6    ccc    H16    169 0.08347900   1.008000   ; qtot 6.685373
  170          c      6    ccc    C10    170 0.67254400  12.010000   ; qtot 7.357917
  171          o      6    ccc     O4    171 -0.52917200  16.000000   ; qtot 6.828745
  172         c3      6    ccc    C11    172 0.08518000  12.010000   ; qtot 6.913925
  173         c3      6    ccc    C12    173 0.07918000  12.010000   ; qtot 6.993105
  174         h1      6    ccc    H17    174 0.06978000   1.008000   ; qtot 7.062885
  175         c3      6    ccc    C13    175 0.07918000  12.010000   ; qtot 7.142065
  176         c3      6    ccc    C14    176 0.03578000  12.010000   ; qtot 7.177845
  177         c3      6    ccc    C15    177 0.33498000  12.010000   ; qtot 7.512825
  178         h1      6    ccc    H18    178 0.06178000   1.008000   ; qtot 7.574605
  179         h1      6    ccc    H19    179 0.11278000   1.008000   ; qtot 7.687385
  180         h2      6    ccc    H20    180 0.12178000   1.008000   ; qtot 7.809165
  181         oh      6    ccc     O1    181 -0.56972000  16.000000   ; qtot 7.239445
  182         oh      6    ccc     O6    182 -0.57772000  16.000000   ; qtot 6.661725
  183         c3      6    ccc    C16    183 0.14548000  12.010000   ; qtot 6.807205
  184         ho      6    ccc    H21    184 0.40508000   1.008000   ; qtot 7.212285
  185         hn      6    ccc    H22    185 0.31758000   1.008000   ; qtot 7.529865
  186         h1      6    ccc    H23    186 0.06278000   1.008000   ; qtot 7.592645
  187         h1      6    ccc    H24    187 0.06278000   1.008000   ; qtot 7.655425
  188         oh      6    ccc     O7    188 -0.59472000  16.000000   ; qtot 7.060705
  189         ho      6    ccc    H25    189 0.41908000   1.008000   ; qtot 7.479785
  190         os      6    ccc     O8    190 -0.44552000  16.000000   ; qtot 7.034265
  191         ho      6    ccc    H26    191 0.41908000   1.008000   ; qtot 7.453345
  192         h1      6    ccc    H27    192 0.08578000   1.008000   ; qtot 7.539125
  193         oh      6    ccc     O9    193 -0.58672000  16.000000   ; qtot 6.952405
  194         ho      6    ccc    H28    194 0.41908000   1.008000   ; qtot 7.371485
  195         n3      6    ccc     N3    195 -0.54282000  14.010000   ; qtot 6.828665
  196         c3      6    ccc    C17    196 0.08518000  12.010000   ; qtot 6.913845
  197         c3      6    ccc    C18    197 0.07918000  12.010000   ; qtot 6.993025
  198         h1      6    ccc    H29    198 0.06978000   1.008000   ; qtot 7.062805
  199         c3      6    ccc    C19    199 0.07918000  12.010000   ; qtot 7.141985
  200         c3      6    ccc    C20    200 0.03578000  12.010000   ; qtot 7.177765
  201         c3      6    ccc    C21    201 0.33498000  12.010000   ; qtot 7.512745
  202         h1      6    ccc    H30    202 0.06178000   1.008000   ; qtot 7.574525
  203         h1      6    ccc    H31    203 0.11278000   1.008000   ; qtot 7.687305
  204         h2      6    ccc    H32    204 0.12178000   1.008000   ; qtot 7.809085
  205         oh      6    ccc    O10    205 -0.56972000  16.000000   ; qtot 7.239365
  206         oh      6    ccc    O11    206 -0.57772000  16.000000   ; qtot 6.661645
  207         c3      6    ccc    C22    207 0.14548000  12.010000   ; qtot 6.807125
  208         ho      6    ccc    H33    208 0.40508000   1.008000   ; qtot 7.212205
  209         hn      6    ccc    H34    209 0.31758000   1.008000   ; qtot 7.529785
  210         h1      6    ccc    H35    210 0.06278000   1.008000   ; qtot 7.592565
  211         h1      6    ccc    H36    211 0.06278000   1.008000   ; qtot 7.655345
  212         oh      6    ccc    O12    212 -0.59472000  16.000000   ; qtot 7.060625
  213         ho      6    ccc    H37    213 0.41908000   1.008000   ; qtot 7.479705
  214         os      6    ccc    O13    214 -0.44552000  16.000000   ; qtot 7.034185
  215         ho      6    ccc    H38    215 0.41908000   1.008000   ; qtot 7.453265
  216         h1      6    ccc    H39    216 0.08578000   1.008000   ; qtot 7.539045
  217         oh      6    ccc     O5    217 -0.58672000  16.000000   ; qtot 6.952325
  218         ho      6    ccc    H40    218 0.41908000   1.008000   ; qtot 7.371405
  219         n3      6    ccc     N4    219 -0.54282000  14.010000   ; qtot 6.828585
  220         hn      6    ccc    H41    220 0.17125500   1.008000   ; qtot 6.999840
; residue    7 ccc rtp ccc q 1.0
  221          n      7    ccc     N1    221 -0.33303000  14.010000   ; qtot 6.666810
  222         hn      7    ccc     H4    222 0.25916100   1.008000   ; qtot 6.925971
  223         c3      7    ccc     C3    223 -0.03328100  12.010000   ; qtot 6.892690
  224         h1      7    ccc     H5    224 0.10618100   1.008000   ; qtot 6.998871
  225         c3      7    ccc     C4    225 -0.02083000  12.010000   ; qtot 6.978041
  226         h1      7    ccc     H6    226 0.10618100   1.008000   ; qtot 7.084222
  227         h1      7    ccc     H7    227 0.07988000   1.008000   ; qtot 7.164102
  228         h1      7    ccc     H8    228 0.07988000   1.008000   ; qtot 7.243982
  229         n4      7    ccc     N2    229 -0.02747900  14.010000   ; qtot 7.216503
  230         c3      7    ccc     C5    230 -0.05097600  12.010000   ; qtot 7.165527
  231         c3      7    ccc     C6    231 -0.05097600  12.010000   ; qtot 7.114551
  232         h1      7    ccc     H9    232 0.11563300   1.008000   ; qtot 7.230184
  233         c3      7    ccc     C7    233 -0.18457900  12.010000   ; qtot 7.045605
  234         h1      7    ccc    H10    234 0.11563300   1.008000   ; qtot 7.161238
  235         hc      7    ccc    H11    235 0.08347900   1.008000   ; qtot 7.244717
  236         hc      7    ccc    H12    236 0.08347900   1.008000   ; qtot 7.328196
  237          c      7    ccc     C8    237 0.67254400  12.010000   ; qtot 8.000740
  238          o      7    ccc     O2    238 -0.52917200  16.000000   ; qtot 7.471568
  239         h1      7    ccc    H13    239 0.11563300   1.008000   ; qtot 7.587201
  240         h1      7    ccc    H14    240 0.11563300   1.008000   ; qtot 7.702834
  241         c3      7    ccc     C9    241 -0.18457900  12.010000   ; qtot 7.518255
  242         hc      7    ccc    H15    242 0.08347900   1.008000   ; qtot 7.601734
  243         hc      7    ccc    H16    243 0.08347900   1.008000   ; qtot 7.685213
  244          c      7    ccc    C10    244 0.67254400  12.010000   ; qtot 8.357757
  245          o      7    ccc     O4    245 -0.52917200  16.000000   ; qtot 7.828585
  246         c3      7    ccc    C11    246 0.08518000  12.010000   ; qtot 7.913765
  247         c3      7    ccc    C12    247 0.07918000  12.010000   ; qtot 7.992945
  248         h1      7    ccc    H17    248 0.06978000   1.008000   ; qtot 8.062725
  249         c3      7    ccc    C13    249 0.07918000  12.010000   ; qtot 8.141905
  250         c3      7    ccc    C14    250 0.03578000  12.010000   ; qtot 8.177685
  251         c3      7    ccc    C15    251 0.33498000  12.010000   ; qtot 8.512665
  252         h1      7    ccc    H18    252 0.06178000   1.008000   ; qtot 8.574445
  253         h1      7    ccc    H19    253 0.11278000   1.008000   ; qtot 8.687225
  254         h2      7    ccc    H20    254 0.12178000   1.008000   ; qtot 8.809005
  255         oh      7    ccc     O1    255 -0.56972000  16.000000   ; qtot 8.239285
  256         oh      7    ccc     O6    256 -0.57772000  16.000000   ; qtot 7.661565
  257         c3      7    ccc    C16    257 0.14548000  12.010000   ; qtot 7.807045
  258         ho      7    ccc    H21    258 0.40508000   1.008000   ; qtot 8.212125
  259         hn      7    ccc    H22    259 0.31758000   1.008000   ; qtot 8.529705
  260         h1      7    ccc    H23    260 0.06278000   1.008000   ; qtot 8.592485
  261         h1      7    ccc    H24    261 0.06278000   1.008000   ; qtot 8.655265
  262         oh      7    ccc     O7    262 -0.59472000  16.000000   ; qtot 8.060545
  263         ho      7    ccc    H25    263 0.41908000   1.008000   ; qtot 8.479625
  264         os      7    ccc     O8    264 -0.44552000  16.000000   ; qtot 8.034105
  265         ho      7    ccc    H26    265 0.41908000   1.008000   ; qtot 8.453185
  266         h1      7    ccc    H27    266 0.08578000   1.008000   ; qtot 8.538965
  267         oh      7    ccc     O9    267 -0.58672000  16.000000   ; qtot 7.952245
  268         ho      7    ccc    H28    268 0.41908000   1.008000   ; qtot 8.371325
  269         n3      7    ccc     N3    269 -0.54282000  14.010000   ; qtot 7.828505
  270         c3      7    ccc    C17    270 0.08518000  12.010000   ; qtot 7.913685
  271         c3      7    ccc    C18    271 0.07918000  12.010000   ; qtot 7.992865
  272         h1      7    ccc    H29    272 0.06978000   1.008000   ; qtot 8.062645
  273         c3      7    ccc    C19    273 0.07918000  12.010000   ; qtot 8.141825
  274         c3      7    ccc    C20    274 0.03578000  12.010000   ; qtot 8.177605
  275         c3      7    ccc    C21    275 0.33498000  12.010000   ; qtot 8.512585
  276         h1      7    ccc    H30    276 0.06178000   1.008000   ; qtot 8.574365
  277         h1      7    ccc    H31    277 0.11278000   1.008000   ; qtot 8.687145
  278         h2      7    ccc    H32    278 0.12178000   1.008000   ; qtot 8.808925
  279         oh      7    ccc    O10    279 -0.56972000  16.000000   ; qtot 8.239205
  280         oh      7    ccc    O11    280 -0.57772000  16.000000   ; qtot 7.661485
  281         c3      7    ccc    C22    281 0.14548000  12.010000   ; qtot 7.806965
  282         ho      7    ccc    H33    282 0.40508000   1.008000   ; qtot 8.212045
  283         hn      7    ccc    H34    283 0.31758000   1.008000   ; qtot 8.529625
  284         h1      7    ccc    H35    284 0.06278000   1.008000   ; qtot 8.592405
  285         h1      7    ccc    H36    285 0.06278000   1.008000   ; qtot 8.655185
  286         oh      7    ccc    O12    286 -0.59472000  16.000000   ; qtot 8.060465
  287         ho      7    ccc    H37    287 0.41908000   1.008000   ; qtot 8.479545
  288         os      7    ccc    O13    288 -0.44552000  16.000000   ; qtot 8.034025
  289         ho      7    ccc    H38    289 0.41908000   1.008000   ; qtot 8.453105
  290         h1      7    ccc    H39    290 0.08578000   1.008000   ; qtot 8.538885
  291         oh      7    ccc     O5    291 -0.58672000  16.000000   ; qtot 7.952165
  292         ho      7    ccc    H40    292 0.41908000   1.008000   ; qtot 8.371245
  293         n3      7    ccc     N4    293 -0.54282000  14.010000   ; qtot 7.828425
  294         hn      7    ccc    H41    294 0.17125500   1.008000   ; qtot 7.999680
; residue    8 ccc rtp ccc q 1.0
  295          n      8    ccc     N1    295 -0.33303000  14.010000   ; qtot 7.666650
  296         hn      8    ccc     H4    296 0.25916100   1.008000   ; qtot 7.925811
  297         c3      8    ccc     C3    297 -0.03328100  12.010000   ; qtot 7.892530
  298         h1      8    ccc     H5    298 0.10618100   1.008000   ; qtot 7.998711
  299         c3      8    ccc     C4    299 -0.02083000  12.010000   ; qtot 7.977881
  300         h1      8    ccc     H6    300 0.10618100   1.008000   ; qtot 8.084062
  301         h1      8    ccc     H7    301 0.07988000   1.008000   ; qtot 8.163942
  302         h1      8    ccc     H8    302 0.07988000   1.008000   ; qtot 8.243822
  303         n4      8    ccc     N2    303 -0.02747900  14.010000   ; qtot 8.216343
  304         c3      8    ccc     C5    304 -0.05097600  12.010000   ; qtot 8.165367
  305         c3      8    ccc     C6    305 -0.05097600  12.010000   ; qtot 8.114391
  306         h1      8    ccc     H9    306 0.11563300   1.008000   ; qtot 8.230024
  307         c3      8    ccc     C7    307 -0.18457900  12.010000   ; qtot 8.045445
  308         h1      8    ccc    H10    308 0.11563300   1.008000   ; qtot 8.161078
  309         hc      8    ccc    H11    309 0.08347900   1.008000   ; qtot 8.244557
  310         hc      8    ccc    H12    310 0.08347900   1.008000   ; qtot 8.328036
  311          c      8    ccc     C8    311 0.67254400  12.010000   ; qtot 9.000580
  312          o      8    ccc     O2    312 -0.52917200  16.000000   ; qtot 8.471408
  313         h1      8    ccc    H13    313 0.11563300   1.008000   ; qtot 8.587041
  314         h1      8    ccc    H14    314 0.11563300   1.008000   ; qtot 8.702674
  315         c3      8    ccc     C9    315 -0.18457900  12.010000   ; qtot 8.518095
  316         hc      8    ccc    H15    316 0.08347900   1.008000   ; qtot 8.601574
  317         hc      8    ccc    H16    317 0.08347900   1.008000   ; qtot 8.685053
  318          c      8    ccc    C10    318 0.67254400  12.010000   ; qtot 9.357597
  319          o      8    ccc     O4    319 -0.52917200  16.000000   ; qtot 8.828425
  320         c3      8    ccc    C11    320 0.08518000  12.010000   ; qtot 8.913605
  321         c3      8    ccc    C12    321 0.07918000  12.010000   ; qtot 8.992785
  322         h1      8    ccc    H17    322 0.06978000   1.008000   ; qtot 9.062565
  323         c3      8    ccc    C13    323 0.07918000  12.010000   ; qtot 9.141745
  324         c3      8    ccc    C14    324 0.03578000  12.010000   ; qtot 9.177525
  325         c3      8    ccc    C15    325 0.33498000  12.010000   ; qtot 9.512505
  326         h1      8    ccc    H18    326 0.06178000   1.008000   ; qtot 9.574285
  327         h1      8    ccc    H19    327 0.11278000   1.008000   ; qtot 9.687065
  328         h2      8    ccc    H20    328 0.12178000   1.008000   ; qtot 9.808845
  329         oh      8    ccc     O1    329 -0.56972000  16.000000   ; qtot 9.239125
  330         oh      8    ccc     O6    330 -0.57772000  16.000000   ; qtot 8.661405
  331         c3      8    ccc    C16    331 0.14548000  12.010000   ; qtot 8.806885
  332         ho      8    ccc    H21    332 0.40508000   1.008000   ; qtot 9.211965
  333         hn      8    ccc    H22    333 0.31758000   1.008000   ; qtot 9.529545
  334         h1      8    ccc    H23    334 0.06278000   1.008000   ; qtot 9.592325
  335         h1      8    ccc    H24    335 0.06278000   1.008000   ; qtot 9.655105
  336         oh      8    ccc     O7    336 -0.59472000  16.000000   ; qtot 9.060385
  337         ho      8    ccc    H25    337 0.41908000   1.008000   ; qtot 9.479465
  338         os      8    ccc     O8    338 -0.44552000  16.000000   ; qtot 9.033945
  339         ho      8    ccc    H26    339 0.41908000   1.008000   ; qtot 9.453025
  340         h1      8    ccc    H27    340 0.08578000   1.008000   ; qtot 9.538805
  341         oh      8    ccc     O9    341 -0.58672000  16.000000   ; qtot 8.952085
  342         ho      8    ccc    H28    342 0.41908000   1.008000   ; qtot 9.371165
  343         n3      8    ccc     N3    343 -0.54282000  14.010000   ; qtot 8.828345
  344         c3      8    ccc    C17    344 0.08518000  12.010000   ; qtot 8.913525
  345         c3      8    ccc    C18    345 0.07918000  12.010000   ; qtot 8.992705
  346         h1      8    ccc    H29    346 0.06978000   1.008000   ; qtot 9.062485
  347         c3      8    ccc    C19    347 0.07918000  12.010000   ; qtot 9.141665
  348         c3      8    ccc    C20    348 0.03578000  12.010000   ; qtot 9.177445
  349         c3      8    ccc    C21    349 0.33498000  12.010000   ; qtot 9.512425
  350         h1      8    ccc    H30    350 0.06178000   1.008000   ; qtot 9.574205
  351         h1      8    ccc    H31    351 0.11278000   1.008000   ; qtot 9.686985
  352         h2      8    ccc    H32    352 0.12178000   1.008000   ; qtot 9.808765
  353         oh      8    ccc    O10    353 -0.56972000  16.000000   ; qtot 9.239045
  354         oh      8    ccc    O11    354 -0.57772000  16.000000   ; qtot 8.661325
  355         c3      8    ccc    C22    355 0.14548000  12.010000   ; qtot 8.806805
  356         ho      8    ccc    H33    356 0.40508000   1.008000   ; qtot 9.211885
  357         hn      8    ccc    H34    357 0.31758000   1.008000   ; qtot 9.529465
  358         h1      8    ccc    H35    358 0.06278000   1.008000   ; qtot 9.592245
  359         h1      8    ccc    H36    359 0.06278000   1.008000   ; qtot 9.655025
  360         oh      8    ccc    O12    360 -0.59472000  16.000000   ; qtot 9.060305
  361         ho      8    ccc    H37    361 0.41908000   1.008000   ; qtot 9.479385
  362         os      8    ccc    O13    362 -0.44552000  16.000000   ; qtot 9.033865
  363         ho      8    ccc    H38    363 0.41908000   1.008000   ; qtot 9.452945
  364         h1      8    ccc    H39    364 0.08578000   1.008000   ; qtot 9.538725
  365         oh      8    ccc     O5    365 -0.58672000  16.000000   ; qtot 8.952005
  366         ho      8    ccc    H40    366 0.41908000   1.008000   ; qtot 9.371085
  367         n3      8    ccc     N4    367 -0.54282000  14.010000   ; qtot 8.828265
  368         hn      8    ccc    H41    368 0.17125500   1.008000   ; qtot 8.999520
; residue    9 ccc rtp ccc q 1.0
  369          n      9    ccc     N1    369 -0.33303000  14.010000   ; qtot 8.666490
  370         hn      9    ccc     H4    370 0.25916100   1.008000   ; qtot 8.925651
  371         c3      9    ccc     C3    371 -0.03328100  12.010000   ; qtot 8.892370
  372         h1      9    ccc     H5    372 0.10618100   1.008000   ; qtot 8.998551
  373         c3      9    ccc     C4    373 -0.02083000  12.010000   ; qtot 8.977721
  374         h1      9    ccc     H6    374 0.10618100   1.008000   ; qtot 9.083902
  375         h1      9    ccc     H7    375 0.07988000   1.008000   ; qtot 9.163782
  376         h1      9    ccc     H8    376 0.07988000   1.008000   ; qtot 9.243662
  377         n4      9    ccc     N2    377 -0.02747900  14.010000   ; qtot 9.216183
  378         c3      9    ccc     C5    378 -0.05097600  12.010000   ; qtot 9.165207
  379         c3      9    ccc     C6    379 -0.05097600  12.010000   ; qtot 9.114231
  380         h1      9    ccc     H9    380 0.11563300   1.008000   ; qtot 9.229864
  381         c3      9    ccc     C7    381 -0.18457900  12.010000   ; qtot 9.045285
  382         h1      9    ccc    H10    382 0.11563300   1.008000   ; qtot 9.160918
  383         hc      9    ccc    H11    383 0.08347900   1.008000   ; qtot 9.244397
  384         hc      9    ccc    H12    384 0.08347900   1.008000   ; qtot 9.327876
  385          c      9    ccc     C8    385 0.67254400  12.010000   ; qtot 10.000420
  386          o      9    ccc     O2    386 -0.52917200  16.000000   ; qtot 9.471248
  387         h1      9    ccc    H13    387 0.11563300   1.008000   ; qtot 9.586881
  388         h1      9    ccc    H14    388 0.11563300   1.008000   ; qtot 9.702514
  389         c3      9    ccc     C9    389 -0.18457900  12.010000   ; qtot 9.517935
  390         hc      9    ccc    H15    390 0.08347900   1.008000   ; qtot 9.601414
  391         hc      9    ccc    H16    391 0.08347900   1.008000   ; qtot 9.684893
  392          c      9    ccc    C10    392 0.67254400  12.010000   ; qtot 10.357437
  393          o      9    ccc     O4    393 -0.52917200  16.000000   ; qtot 9.828265
  394         c3      9    ccc    C11    394 0.08518000  12.010000   ; qtot 9.913445
  395         c3      9    ccc    C12    395 0.07918000  12.010000   ; qtot 9.992625
  396         h1      9    ccc    H17    396 0.06978000   1.008000   ; qtot 10.062405
  397         c3      9    ccc    C13    397 0.07918000  12.010000   ; qtot 10.141585
  398         c3      9    ccc    C14    398 0.03578000  12.010000   ; qtot 10.177365
  399         c3      9    ccc    C15    399 0.33498000  12.010000   ; qtot 10.512345
  400         h1      9    ccc    H18    400 0.06178000   1.008000   ; qtot 10.574125
  401         h1      9    ccc    H19    401 0.11278000   1.008000   ; qtot 10.686905
  402         h2      9    ccc    H20    402 0.12178000   1.008000   ; qtot 10.808685
  403         oh      9    ccc     O1    403 -0.56972000  16.000000   ; qtot 10.238965
  404         oh      9    ccc     O6    404 -0.57772000  16.000000   ; qtot 9.661245
  405         c3      9    ccc    C16    405 0.14548000  12.010000   ; qtot 9.806725
  406         ho      9    ccc    H21    406 0.40508000   1.008000   ; qtot 10.211805
  407         hn      9    ccc    H22    407 0.31758000   1.008000   ; qtot 10.529385
  408         h1      9    ccc    H23    408 0.06278000   1.008000   ; qtot 10.592165
  409         h1      9    ccc    H24    409 0.06278000   1.008000   ; qtot 10.654945
  410         oh      9    ccc     O7    410 -0.59472000  16.000000   ; qtot 10.060225
  411         ho      9    ccc    H25    411 0.41908000   1.008000   ; qtot 10.479305
  412         os      9    ccc     O8    412 -0.44552000  16.000000   ; qtot 10.033785
  413         ho      9    ccc    H26    413 0.41908000   1.008000   ; qtot 10.452865
  414         h1      9    ccc    H27    414 0.08578000   1.008000   ; qtot 10.538645
  415         oh      9    ccc     O9    415 -0.58672000  16.000000   ; qtot 9.951925
  416         ho      9    ccc    H28    416 0.41908000   1.008000   ; qtot 10.371005
  417         n3      9    ccc     N3    417 -0.54282000  14.010000   ; qtot 9.828185
  418         c3      9    ccc    C17    418 0.08518000  12.010000   ; qtot 9.913365
  419         c3      9    ccc    C18    419 0.07918000  12.010000   ; qtot 9.992545
  420         h1      9    ccc    H29    420 0.06978000   1.008000   ; qtot 10.062325
  421         c3      9    ccc    C19    421 0.07918000  12.010000   ; qtot 10.141505
  422         c3      9    ccc    C20    422 0.03578000  12.010000   ; qtot 10.177285
  423         c3      9    ccc    C21    423 0.33498000  12.010000   ; qtot 10.512265
  424         h1      9    ccc    H30    424 0.06178000   1.008000   ; qtot 10.574045
  425         h1      9    ccc    H31    425 0.11278000   1.008000   ; qtot 10.686825
  426         h2      9    ccc    H32    426 0.12178000   1.008000   ; qtot 10.808605
  427         oh      9    ccc    O10    427 -0.56972000  16.000000   ; qtot 10.238885
  428         oh      9    ccc    O11    428 -0.57772000  16.000000   ; qtot 9.661165
  429         c3      9    ccc    C22    429 0.14548000  12.010000   ; qtot 9.806645
  430         ho      9    ccc    H33    430 0.40508000   1.008000   ; qtot 10.211725
  431         hn      9    ccc    H34    431 0.31758000   1.008000   ; qtot 10.529305
  432         h1      9    ccc    H35    432 0.06278000   1.008000   ; qtot 10.592085
  433         h1      9    ccc    H36    433 0.06278000   1.008000   ; qtot 10.654865
  434         oh      9    ccc    O12    434 -0.59472000  16.000000   ; qtot 10.060145
  435         ho      9    ccc    H37    435 0.41908000   1.008000   ; qtot 10.479225
  436         os      9    ccc    O13    436 -0.44552000  16.000000   ; qtot 10.033705
  437         ho      9    ccc    H38    437 0.41908000   1.008000   ; qtot 10.452785
  438         h1      9    ccc    H39    438 0.08578000   1.008000   ; qtot 10.538565
  439         oh      9    ccc     O5    439 -0.58672000  16.000000   ; qtot 9.951845
  440         ho      9    ccc    H40    440 0.41908000   1.008000   ; qtot 10.370925
  441         n3      9    ccc     N4    441 -0.54282000  14.010000   ; qtot 9.828105
  442         hn      9    ccc    H41    442 0.17125500   1.008000   ; qtot 9.999360
; residue   10 ccc rtp ccc q 1.0
  443          n     10    ccc     N1    443 -0.33303000  14.010000   ; qtot 9.666330
  444         hn     10    ccc     H4    444 0.25916100   1.008000   ; qtot 9.925491
  445         c3     10    ccc     C3    445 -0.03328100  12.010000   ; qtot 9.892210
  446         h1     10    ccc     H5    446 0.10618100   1.008000   ; qtot 9.998391
  447         c3     10    ccc     C4    447 -0.02083000  12.010000   ; qtot 9.977561
  448         h1     10    ccc     H6    448 0.10618100   1.008000   ; qtot 10.083742
  449         h1     10    ccc     H7    449 0.07988000   1.008000   ; qtot 10.163622
  450         h1     10    ccc     H8    450 0.07988000   1.008000   ; qtot 10.243502
  451         n4     10    ccc     N2    451 -0.02747900  14.010000   ; qtot 10.216023
  452         c3     10    ccc     C5    452 -0.05097600  12.010000   ; qtot 10.165047
  453         c3     10    ccc     C6    453 -0.05097600  12.010000   ; qtot 10.114071
  454         h1     10    ccc     H9    454 0.11563300   1.008000   ; qtot 10.229704
  455         c3     10    ccc     C7    455 -0.18457900  12.010000   ; qtot 10.045125
  456         h1     10    ccc    H10    456 0.11563300   1.008000   ; qtot 10.160758
  457         hc     10    ccc    H11    457 0.08347900   1.008000   ; qtot 10.244237
  458         hc     10    ccc    H12    458 0.08347900   1.008000   ; qtot 10.327716
  459          c     10    ccc     C8    459 0.67254400  12.010000   ; qtot 11.000260
  460          o     10    ccc     O2    460 -0.52917200  16.000000   ; qtot 10.471088
  461         h1     10    ccc    H13    461 0.11563300   1.008000   ; qtot 10.586721
  462         h1     10    ccc    H14    462 0.11563300   1.008000   ; qtot 10.702354
  463         c3     10    ccc     C9    463 -0.18457900  12.010000   ; qtot 10.517775
  464         hc     10    ccc    H15    464 0.08347900   1.008000   ; qtot 10.601254
  465         hc     10    ccc    H16    465 0.08347900   1.008000   ; qtot 10.684733
  466          c     10    ccc    C10    466 0.67254400  12.010000   ; qtot 11.357277
  467          o     10    ccc     O4    467 -0.52917200  16.000000   ; qtot 10.828105
  468         c3     10    ccc    C11    468 0.08518000  12.010000   ; qtot 10.913285
  469         c3     10    ccc    C12    469 0.07918000  12.010000   ; qtot 10.992465
  470         h1     10    ccc    H17    470 0.06978000   1.008000   ; qtot 11.062245
  471         c3     10    ccc    C13    471 0.07918000  12.010000   ; qtot 11.141425
  472         c3     10    ccc    C14    472 0.03578000  12.010000   ; qtot 11.177205
  473         c3     10    ccc    C15    473 0.33498000  12.010000   ; qtot 11.512185
  474         h1     10    ccc    H18    474 0.06178000   1.008000   ; qtot 11.573965
  475         h1     10    ccc    H19    475 0.11278000   1.008000   ; qtot 11.686745
  476         h2     10    ccc    H20    476 0.12178000   1.008000   ; qtot 11.808525
  477         oh     10    ccc     O1    477 -0.56972000  16.000000   ; qtot 11.238805
  478         oh     10    ccc     O6    478 -0.57772000  16.000000   ; qtot 10.661085
  479         c3     10    ccc    C16    479 0.14548000  12.010000   ; qtot 10.806565
  480         ho     10    ccc    H21    480 0.40508000   1.008000   ; qtot 11.211645
  481         hn     10    ccc    H22    481 0.31758000   1.008000   ; qtot 11.529225
  482         h1     10    ccc    H23    482 0.06278000   1.008000   ; qtot 11.592005
  483         h1     10    ccc    H24    483 0.06278000   1.008000   ; qtot 11.654785
  484         oh     10    ccc     O7    484 -0.59472000  16.000000   ; qtot 11.060065
  485         ho     10    ccc    H25    485 0.41908000   1.008000   ; qtot 11.479145
  486         os     10    ccc     O8    486 -0.44552000  16.000000   ; qtot 11.033625
  487         ho     10    ccc    H26    487 0.41908000   1.008000   ; qtot 11.452705
  488         h1     10    ccc    H27    488 0.08578000   1.008000   ; qtot 11.538485
  489         oh     10    ccc     O9    489 -0.58672000  16.000000   ; qtot 10.951765
  490         ho     10    ccc    H28    490 0.41908000   1.008000   ; qtot 11.370845
  491         n3     10    ccc     N3    491 -0.54282000  14.010000   ; qtot 10.828025
  492         c3     10    ccc    C17    492 0.08518000  12.010000   ; qtot 10.913205
  493         c3     10    ccc    C18    493 0.07918000  12.010000   ; qtot 10.992385
  494         h1     10    ccc    H29    494 0.06978000   1.008000   ; qtot 11.062165
  495         c3     10    ccc    C19    495 0.07918000  12.010000   ; qtot 11.141345
  496         c3     10    ccc    C20    496 0.03578000  12.010000   ; qtot 11.177125
  497         c3     10    ccc    C21    497 0.33498000  12.010000   ; qtot 11.512105
  498         h1     10    ccc    H30    498 0.06178000   1.008000   ; qtot 11.573885
  499         h1     10    ccc    H31    499 0.11278000   1.008000   ; qtot 11.686665
  500         h2     10    ccc    H32    500 0.12178000   1.008000   ; qtot 11.808445
  501         oh     10    ccc    O10    501 -0.56972000  16.000000   ; qtot 11.238725
  502         oh     10    ccc    O11    502 -0.57772000  16.000000   ; qtot 10.661005
  503         c3     10    ccc    C22    503 0.14548000  12.010000   ; qtot 10.806485
  504         ho     10    ccc    H33    504 0.40508000   1.008000   ; qtot 11.211565
  505         hn     10    ccc    H34    505 0.31758000   1.008000   ; qtot 11.529145
  506         h1     10    ccc    H35    506 0.06278000   1.008000   ; qtot 11.591925
  507         h1     10    ccc    H36    507 0.06278000   1.008000   ; qtot 11.654705
  508         oh     10    ccc    O12    508 -0.59472000  16.000000   ; qtot 11.059985
  509         ho     10    ccc    H37    509 0.41908000   1.008000   ; qtot 11.479065
  510         os     10    ccc    O13    510 -0.44552000  16.000000   ; qtot 11.033545
  511         ho     10    ccc    H38    511 0.41908000   1.008000   ; qtot 11.452625
  512         h1     10    ccc    H39    512 0.08578000   1.008000   ; qtot 11.538405
  513         oh     10    ccc     O5    513 -0.58672000  16.000000   ; qtot 10.951685
  514         ho     10    ccc    H40    514 0.41908000   1.008000   ; qtot 11.370765
  515         n3     10    ccc     N4    515 -0.54282000  14.010000   ; qtot 10.827945
  516         hn     10    ccc    H41    516 0.17125500   1.008000   ; qtot 10.999200
; residue   11 ccc rtp ccc q 1.0
  517          n     11    ccc     N1    517 -0.33303000  14.010000   ; qtot 10.666170
  518         hn     11    ccc     H4    518 0.25916100   1.008000   ; qtot 10.925331
  519         c3     11    ccc     C3    519 -0.03328100  12.010000   ; qtot 10.892050
  520         h1     11    ccc     H5    520 0.10618100   1.008000   ; qtot 10.998231
  521         c3     11    ccc     C4    521 -0.02083000  12.010000   ; qtot 10.977401
  522         h1     11    ccc     H6    522 0.10618100   1.008000   ; qtot 11.083582
  523         h1     11    ccc     H7    523 0.07988000   1.008000   ; qtot 11.163462
  524         h1     11    ccc     H8    524 0.07988000   1.008000   ; qtot 11.243342
  525         n4     11    ccc     N2    525 -0.02747900  14.010000   ; qtot 11.215863
  526         c3     11    ccc     C5    526 -0.05097600  12.010000   ; qtot 11.164887
  527         c3     11    ccc     C6    527 -0.05097600  12.010000   ; qtot 11.113911
  528         h1     11    ccc     H9    528 0.11563300   1.008000   ; qtot 11.229544
  529         c3     11    ccc     C7    529 -0.18457900  12.010000   ; qtot 11.044965
  530         h1     11    ccc    H10    530 0.11563300   1.008000   ; qtot 11.160598
  531         hc     11    ccc    H11    531 0.08347900   1.008000   ; qtot 11.244077
  532         hc     11    ccc    H12    532 0.08347900   1.008000   ; qtot 11.327556
  533          c     11    ccc     C8    533 0.67254400  12.010000   ; qtot 12.000100
  534          o     11    ccc     O2    534 -0.52917200  16.000000   ; qtot 11.470928
  535         h1     11    ccc    H13    535 0.11563300   1.008000   ; qtot 11.586561
  536         h1     11    ccc    H14    536 0.11563300   1.008000   ; qtot 11.702194
  537         c3     11    ccc     C9    537 -0.18457900  12.010000   ; qtot 11.517615
  538         hc     11    ccc    H15    538 0.08347900   1.008000   ; qtot 11.601094
  539         hc     11    ccc    H16    539 0.08347900   1.008000   ; qtot 11.684573
  540          c     11    ccc    C10    540 0.67254400  12.010000   ; qtot 12.357117
  541          o     11    ccc     O4    541 -0.52917200  16.000000   ; qtot 11.827945
  542         c3     11    ccc    C11    542 0.08518000  12.010000   ; qtot 11.913125
  543         c3     11    ccc    C12    543 0.07918000  12.010000   ; qtot 11.992305
  544         h1     11    ccc    H17    544 0.06978000   1.008000   ; qtot 12.062085
  545         c3     11    ccc    C13    545 0.07918000  12.010000   ; qtot 12.141265
  546         c3     11    ccc    C14    546 0.03578000  12.010000   ; qtot 12.177045
  547         c3     11    ccc    C15    547 0.33498000  12.010000   ; qtot 12.512025
  548         h1     11    ccc    H18    548 0.06178000   1.008000   ; qtot 12.573805
  549         h1     11    ccc    H19    549 0.11278000   1.008000   ; qtot 12.686585
  550         h2     11    ccc    H20    550 0.12178000   1.008000   ; qtot 12.808365
  551         oh     11    ccc     O1    551 -0.56972000  16.000000   ; qtot 12.238645
  552         oh     11    ccc     O6    552 -0.57772000  16.000000   ; qtot 11.660925
  553         c3     11    ccc    C16    553 0.14548000  12.010000   ; qtot 11.806405
  554         ho     11    ccc    H21    554 0.40508000   1.008000   ; qtot 12.211485
  555         hn     11    ccc    H22    555 0.31758000   1.008000   ; qtot 12.529065
  556         h1     11    ccc    H23    556 0.06278000   1.008000   ; qtot 12.591845
  557         h1     11    ccc    H24    557 0.06278000   1.008000   ; qtot 12.654625
  558         oh     11    ccc     O7    558 -0.59472000  16.000000   ; qtot 12.059905
  559         ho     11    ccc    H25    559 0.41908000   1.008000   ; qtot 12.478985
  560         os     11    ccc     O8    560 -0.44552000  16.000000   ; qtot 12.033465
  561         ho     11    ccc    H26    561 0.41908000   1.008000   ; qtot 12.452545
  562         h1     11    ccc    H27    562 0.08578000   1.008000   ; qtot 12.538325
  563         oh     11    ccc     O9    563 -0.58672000  16.000000   ; qtot 11.951605
  564         ho     11    ccc    H28    564 0.41908000   1.008000   ; qtot 12.370685
  565         n3     11    ccc     N3    565 -0.54282000  14.010000   ; qtot 11.827865
  566         c3     11    ccc    C17    566 0.08518000  12.010000   ; qtot 11.913045
  567         c3     11    ccc    C18    567 0.07918000  12.010000   ; qtot 11.992225
  568         h1     11    ccc    H29    568 0.06978000   1.008000   ; qtot 12.062005
  569         c3     11    ccc    C19    569 0.07918000  12.010000   ; qtot 12.141185
  570         c3     11    ccc    C20    570 0.03578000  12.010000   ; qtot 12.176965
  571         c3     11    ccc    C21    571 0.33498000  12.010000   ; qtot 12.511945
  572         h1     11    ccc    H30    572 0.06178000   1.008000   ; qtot 12.573725
  573         h1     11    ccc    H31    573 0.11278000   1.008000   ; qtot 12.686505
  574         h2     11    ccc    H32    574 0.12178000   1.008000   ; qtot 12.808285
  575         oh     11    ccc    O10    575 -0.56972000  16.000000   ; qtot 12.238565
  576         oh     11    ccc    O11    576 -0.57772000  16.000000   ; qtot 11.660845
  577         c3     11    ccc    C22    577 0.14548000  12.010000   ; qtot 11.806325
  578         ho     11    ccc    H33    578 0.40508000   1.008000   ; qtot 12.211405
  579         hn     11    ccc    H34    579 0.31758000   1.008000   ; qtot 12.528985
  580         h1     11    ccc    H35    580 0.06278000   1.008000   ; qtot 12.591765
  581         h1     11    ccc    H36    581 0.06278000   1.008000   ; qtot 12.654545
  582         oh     11    ccc    O12    582 -0.59472000  16.000000   ; qtot 12.059825
  583         ho     11    ccc    H37    583 0.41908000   1.008000   ; qtot 12.478905
  584         os     11    ccc    O13    584 -0.44552000  16.000000   ; qtot 12.033385
  585         ho     11    ccc    H38    585 0.41908000   1.008000   ; qtot 12.452465
  586         h1     11    ccc    H39    586 0.08578000   1.008000   ; qtot 12.538245
  587         oh     11    ccc     O5    587 -0.58672000  16.000000   ; qtot 11.951525
  588         ho     11    ccc    H40    588 0.41908000   1.008000   ; qtot 12.370605
  589         n3     11    ccc     N4    589 -0.54282000  14.010000   ; qtot 11.827785
  590         hn     11    ccc    H41    590 0.17125500   1.008000   ; qtot 11.999040
; residue   12 ccc rtp ccc q 1.0
  591          n     12    ccc     N1    591 -0.33303000  14.010000   ; qtot 11.666010
  592         hn     12    ccc     H4    592 0.25916100   1.008000   ; qtot 11.925171
  593         c3     12    ccc     C3    593 -0.03328100  12.010000   ; qtot 11.891890
  594         h1     12    ccc     H5    594 0.10618100   1.008000   ; qtot 11.998071
  595         c3     12    ccc     C4    595 -0.02083000  12.010000   ; qtot 11.977241
  596         h1     12    ccc     H6    596 0.10618100   1.008000   ; qtot 12.083422
  597         h1     12    ccc     H7    597 0.07988000   1.008000   ; qtot 12.163302
  598         h1     12    ccc     H8    598 0.07988000   1.008000   ; qtot 12.243182
  599         n4     12    ccc     N2    599 -0.02747900  14.010000   ; qtot 12.215703
  600         c3     12    ccc     C5    600 -0.05097600  12.010000   ; qtot 12.164727
  601         c3     12    ccc     C6    601 -0.05097600  12.010000   ; qtot 12.113751
  602         h1     12    ccc     H9    602 0.11563300   1.008000   ; qtot 12.229384
  603         c3     12    ccc     C7    603 -0.18457900  12.010000   ; qtot 12.044805
  604         h1     12    ccc    H10    604 0.11563300   1.008000   ; qtot 12.160438
  605         hc     12    ccc    H11    605 0.08347900   1.008000   ; qtot 12.243917
  606         hc     12    ccc    H12    606 0.08347900   1.008000   ; qtot 12.327396
  607          c     12    ccc     C8    607 0.67254400  12.010000   ; qtot 12.999940
  608          o     12    ccc     O2    608 -0.52917200  16.000000   ; qtot 12.470768
  609         h1     12    ccc    H13    609 0.11563300   1.008000   ; qtot 12.586401
  610         h1     12    ccc    H14    610 0.11563300   1.008000   ; qtot 12.702034
  611         c3     12    ccc     C9    611 -0.18457900  12.010000   ; qtot 12.517455
  612         hc     12    ccc    H15    612 0.08347900   1.008000   ; qtot 12.600934
  613         hc     12    ccc    H16    613 0.08347900   1.008000   ; qtot 12.684413
  614          c     12    ccc    C10    614 0.67254400  12.010000   ; qtot 13.356957
  615          o     12    ccc     O4    615 -0.52917200  16.000000   ; qtot 12.827785
  616         c3     12    ccc    C11    616 0.08518000  12.010000   ; qtot 12.912965
  617         c3     12    ccc    C12    617 0.07918000  12.010000   ; qtot 12.992145
  618         h1     12    ccc    H17    618 0.06978000   1.008000   ; qtot 13.061925
  619         c3     12    ccc    C13    619 0.07918000  12.010000   ; qtot 13.141105
  620         c3     12    ccc    C14    620 0.03578000  12.010000   ; qtot 13.176885
  621         c3     12    ccc    C15    621 0.33498000  12.010000   ; qtot 13.511865
  622         h1     12    ccc    H18    622 0.06178000   1.008000   ; qtot 13.573645
  623         h1     12    ccc    H19    623 0.11278000   1.008000   ; qtot 13.686425
  624         h2     12    ccc    H20    624 0.12178000   1.008000   ; qtot 13.808205
  625         oh     12    ccc     O1    625 -0.56972000  16.000000   ; qtot 13.238485
  626         oh     12    ccc     O6    626 -0.57772000  16.000000   ; qtot 12.660765
  627         c3     12    ccc    C16    627 0.14548000  12.010000   ; qtot 12.806245
  628         ho     12    ccc    H21    628 0.40508000   1.008000   ; qtot 13.211325
  629         hn     12    ccc    H22    629 0.31758000   1.008000   ; qtot 13.528905
  630         h1     12    ccc    H23    630 0.06278000   1.008000   ; qtot 13.591685
  631         h1     12    ccc    H24    631 0.06278000   1.008000   ; qtot 13.654465
  632         oh     12    ccc     O7    632 -0.59472000  16.000000   ; qtot 13.059745
  633         ho     12    ccc    H25    633 0.41908000   1.008000   ; qtot 13.478825
  634         os     12    ccc     O8    634 -0.44552000  16.000000   ; qtot 13.033305
  635         ho     12    ccc    H26    635 0.41908000   1.008000   ; qtot 13.452385
  636         h1     12    ccc    H27    636 0.08578000   1.008000   ; qtot 13.538165
  637         oh     12    ccc     O9    637 -0.58672000  16.000000   ; qtot 12.951445
  638         ho     12    ccc    H28    638 0.41908000   1.008000   ; qtot 13.370525
  639         n3     12    ccc     N3    639 -0.54282000  14.010000   ; qtot 12.827705
  640         c3     12    ccc    C17    640 0.08518000  12.010000   ; qtot 12.912885
  641         c3     12    ccc    C18    641 0.07918000  12.010000   ; qtot 12.992065
  642         h1     12    ccc    H29    642 0.06978000   1.008000   ; qtot 13.061845
  643         c3     12    ccc    C19    643 0.07918000  12.010000   ; qtot 13.141025
  644         c3     12    ccc    C20    644 0.03578000  12.010000   ; qtot 13.176805
  645         c3     12    ccc    C21    645 0.33498000  12.010000   ; qtot 13.511785
  646         h1     12    ccc    H30    646 0.06178000   1.008000   ; qtot 13.573565
  647         h1     12    ccc    H31    647 0.11278000   1.008000   ; qtot 13.686345
  648         h2     12    ccc    H32    648 0.12178000   1.008000   ; qtot 13.808125
  649         oh     12    ccc    O10    649 -0.56972000  16.000000   ; qtot 13.238405
  650         oh     12    ccc    O11    650 -0.57772000  16.000000   ; qtot 12.660685
  651         c3     12    ccc    C22    651 0.14548000  12.010000   ; qtot 12.806165
  652         ho     12    ccc    H33    652 0.40508000   1.008000   ; qtot 13.211245
  653         hn     12    ccc    H34    653 0.31758000   1.008000   ; qtot 13.528825
  654         h1     12    ccc    H35    654 0.06278000   1.008000   ; qtot 13.591605
  655         h1     12    ccc    H36    655 0.06278000   1.008000   ; qtot 13.654385
  656         oh     12    ccc    O12    656 -0.59472000  16.000000   ; qtot 13.059665
  657         ho     12    ccc    H37    657 0.41908000   1.008000   ; qtot 13.478745
  658         os     12    ccc    O13    658 -0.44552000  16.000000   ; qtot 13.033225
  659         ho     12    ccc    H38    659 0.41908000   1.008000   ; qtot 13.452305
  660         h1     12    ccc    H39    660 0.08578000   1.008000   ; qtot 13.538085
  661         oh     12    ccc     O5    661 -0.58672000  16.000000   ; qtot 12.951365
  662         ho     12    ccc    H40    662 0.41908000   1.008000   ; qtot 13.370445
  663         n3     12    ccc     N4    663 -0.54282000  14.010000   ; qtot 12.827625
  664         hn     12    ccc    H41    664 0.17125500   1.008000   ; qtot 12.998880
; residue   13 ccc rtp ccc q 1.0
  665          n     13    ccc     N1    665 -0.33303000  14.010000   ; qtot 12.665850
  666         hn     13    ccc     H4    666 0.25916100   1.008000   ; qtot 12.925011
  667         c3     13    ccc     C3    667 -0.03328100  12.010000   ; qtot 12.891730
  668         h1     13    ccc     H5    668 0.10618100   1.008000   ; qtot 12.997911
  669         c3     13    ccc     C4    669 -0.02083000  12.010000   ; qtot 12.977081
  670         h1     13    ccc     H6    670 0.10618100   1.008000   ; qtot 13.083262
  671         h1     13    ccc     H7    671 0.07988000   1.008000   ; qtot 13.163142
  672         h1     13    ccc     H8    672 0.07988000   1.008000   ; qtot 13.243022
  673         n4     13    ccc     N2    673 -0.02747900  14.010000   ; qtot 13.215543
  674         c3     13    ccc     C5    674 -0.05097600  12.010000   ; qtot 13.164567
  675         c3     13    ccc     C6    675 -0.05097600  12.010000   ; qtot 13.113591
  676         h1     13    ccc     H9    676 0.11563300   1.008000   ; qtot 13.229224
  677         c3     13    ccc     C7    677 -0.18457900  12.010000   ; qtot 13.044645
  678         h1     13    ccc    H10    678 0.11563300   1.008000   ; qtot 13.160278
  679         hc     13    ccc    H11    679 0.08347900   1.008000   ; qtot 13.243757
  680         hc     13    ccc    H12    680 0.08347900   1.008000   ; qtot 13.327236
  681          c     13    ccc     C8    681 0.67254400  12.010000   ; qtot 13.999780
  682          o     13    ccc     O2    682 -0.52917200  16.000000   ; qtot 13.470608
  683         h1     13    ccc    H13    683 0.11563300   1.008000   ; qtot 13.586241
  684         h1     13    ccc    H14    684 0.11563300   1.008000   ; qtot 13.701874
  685         c3     13    ccc     C9    685 -0.18457900  12.010000   ; qtot 13.517295
  686         hc     13    ccc    H15    686 0.08347900   1.008000   ; qtot 13.600774
  687         hc     13    ccc    H16    687 0.08347900   1.008000   ; qtot 13.684253
  688          c     13    ccc    C10    688 0.67254400  12.010000   ; qtot 14.356797
  689          o     13    ccc     O4    689 -0.52917200  16.000000   ; qtot 13.827625
  690         c3     13    ccc    C11    690 0.08518000  12.010000   ; qtot 13.912805
  691         c3     13    ccc    C12    691 0.07918000  12.010000   ; qtot 13.991985
  692         h1     13    ccc    H17    692 0.06978000   1.008000   ; qtot 14.061765
  693         c3     13    ccc    C13    693 0.07918000  12.010000   ; qtot 14.140945
  694         c3     13    ccc    C14    694 0.03578000  12.010000   ; qtot 14.176725
  695         c3     13    ccc    C15    695 0.33498000  12.010000   ; qtot 14.511705
  696         h1     13    ccc    H18    696 0.06178000   1.008000   ; qtot 14.573485
  697         h1     13    ccc    H19    697 0.11278000   1.008000   ; qtot 14.686265
  698         h2     13    ccc    H20    698 0.12178000   1.008000   ; qtot 14.808045
  699         oh     13    ccc     O1    699 -0.56972000  16.000000   ; qtot 14.238325
  700         oh     13    ccc     O6    700 -0.57772000  16.000000   ; qtot 13.660605
  701         c3     13    ccc    C16    701 0.14548000  12.010000   ; qtot 13.806085
  702         ho     13    ccc    H21    702 0.40508000   1.008000   ; qtot 14.211165
  703         hn     13    ccc    H22    703 0.31758000   1.008000   ; qtot 14.528745
  704         h1     13    ccc    H23    704 0.06278000   1.008000   ; qtot 14.591525
  705         h1     13    ccc    H24    705 0.06278000   1.008000   ; qtot 14.654305
  706         oh     13    ccc     O7    706 -0.59472000  16.000000   ; qtot 14.059585
  707         ho     13    ccc    H25    707 0.41908000   1.008000   ; qtot 14.478665
  708         os     13    ccc     O8    708 -0.44552000  16.000000   ; qtot 14.033145
  709         ho     13    ccc    H26    709 0.41908000   1.008000   ; qtot 14.452225
  710         h1     13    ccc    H27    710 0.08578000   1.008000   ; qtot 14.538005
  711         oh     13    ccc     O9    711 -0.58672000  16.000000   ; qtot 13.951285
  712         ho     13    ccc    H28    712 0.41908000   1.008000   ; qtot 14.370365
  713         n3     13    ccc     N3    713 -0.54282000  14.010000   ; qtot 13.827545
  714         c3     13    ccc    C17    714 0.08518000  12.010000   ; qtot 13.912725
  715         c3     13    ccc    C18    715 0.07918000  12.010000   ; qtot 13.991905
  716         h1     13    ccc    H29    716 0.06978000   1.008000   ; qtot 14.061685
  717         c3     13    ccc    C19    717 0.07918000  12.010000   ; qtot 14.140865
  718         c3     13    ccc    C20    718 0.03578000  12.010000   ; qtot 14.176645
  719         c3     13    ccc    C21    719 0.33498000  12.010000   ; qtot 14.511625
  720         h1     13    ccc    H30    720 0.06178000   1.008000   ; qtot 14.573405
  721         h1     13    ccc    H31    721 0.11278000   1.008000   ; qtot 14.686185
  722         h2     13    ccc    H32    722 0.12178000   1.008000   ; qtot 14.807965
  723         oh     13    ccc    O10    723 -0.56972000  16.000000   ; qtot 14.238245
  724         oh     13    ccc    O11    724 -0.57772000  16.000000   ; qtot 13.660525
  725         c3     13    ccc    C22    725 0.14548000  12.010000   ; qtot 13.806005
  726         ho     13    ccc    H33    726 0.40508000   1.008000   ; qtot 14.211085
  727         hn     13    ccc    H34    727 0.31758000   1.008000   ; qtot 14.528665
  728         h1     13    ccc    H35    728 0.06278000   1.008000   ; qtot 14.591445
  729         h1     13    ccc    H36    729 0.06278000   1.008000   ; qtot 14.654225
  730         oh     13    ccc    O12    730 -0.59472000  16.000000   ; qtot 14.059505
  731         ho     13    ccc    H37    731 0.41908000   1.008000   ; qtot 14.478585
  732         os     13    ccc    O13    732 -0.44552000  16.000000   ; qtot 14.033065
  733         ho     13    ccc    H38    733 0.41908000   1.008000   ; qtot 14.452145
  734         h1     13    ccc    H39    734 0.08578000   1.008000   ; qtot 14.537925
  735         oh     13    ccc     O5    735 -0.58672000  16.000000   ; qtot 13.951205
  736         ho     13    ccc    H40    736 0.41908000   1.008000   ; qtot 14.370285
  737         n3     13    ccc     N4    737 -0.54282000  14.010000   ; qtot 13.827465
  738         hn     13    ccc    H41    738 0.17125500   1.008000   ; qtot 13.998720

[ bonds ]
;    ai     aj funct         c0         c1         c2         c3
      1      2     1   0.15110 237065.440000
      1      7     1   0.15110 237065.440000
      1      8     1   0.15110 237065.440000
      2      3     1   0.15375 251793.120000
      3      4     1   0.15110 237065.440000
      4      5     1   0.15110 237065.440000
      4      6     1   0.15110 237065.440000
      5     11     1   0.15375 251793.120000
      6      9     1   0.15375 251793.120000
      7     13     1   0.15375 251793.120000
      8     15     1   0.15375 251793.120000
      9     10     1   0.15241 261918.400000
     10     18     1   0.12183 533627.360000
     10     52     1   0.13789 357815.680000
     11     12     1   0.15241 261918.400000
     12     17     1   0.12183 533627.360000
     12     78     1   0.13789 357815.680000
     13     14     1   0.15241 261918.400000
     14     20     1   0.12183 533627.360000
     14    104     1   0.13789 357815.680000
     15     16     1   0.15241 261918.400000
     16     19     1   0.12183 533627.360000
     16    130     1   0.13789 357815.680000
     43     44     1   0.15110 237065.440000
     43     45     1   0.15110 237065.440000
     43     50     1   0.15110 237065.440000
     44     46     1   0.15375 251793.120000
     45     48     1   0.15375 251793.120000
     46     47     1   0.15241 261918.400000
     47    147     1   0.13789 357815.680000
     47     53     1   0.12183 533627.360000
     48     49     1   0.15241 261918.400000
     49     54     1   0.12183 533627.360000
     49    221     1   0.13789 357815.680000
     50     51     1   0.15375 251793.120000
     51     52     1   0.14619 275056.160000
     69     70     1   0.15110 237065.440000
     69     71     1   0.15110 237065.440000
     69     76     1   0.15110 237065.440000
     70     72     1   0.15375 251793.120000
     71     74     1   0.15375 251793.120000
     72     73     1   0.15241 261918.400000
     73    295     1   0.13789 357815.680000
     73     79     1   0.12183 533627.360000
     74     75     1   0.15241 261918.400000
     75     80     1   0.12183 533627.360000
     75    369     1   0.13789 357815.680000
     76     77     1   0.15375 251793.120000
     77     78     1   0.14619 275056.160000
     95     96     1   0.15110 237065.440000
     95     97     1   0.15110 237065.440000
     95    102     1   0.15110 237065.440000
     96     98     1   0.15375 251793.120000
     97    100     1   0.15375 251793.120000
     98     99     1   0.15241 261918.400000
     99    443     1   0.13789 357815.680000
     99    105     1   0.12183 533627.360000
    100    101     1   0.15241 261918.400000
    101    106     1   0.12183 533627.360000
    101    517     1   0.13789 357815.680000
    102    103     1   0.15375 251793.120000
    103    104     1   0.14619 275056.160000
    121    122     1   0.15110 237065.440000
    121    123     1   0.15110 237065.440000
    121    128     1   0.15110 237065.440000
    122    124     1   0.15375 251793.120000
    123    126     1   0.15375 251793.120000
    124    125     1   0.15241 261918.400000
    125    591     1   0.13789 357815.680000
    125    131     1   0.12183 533627.360000
    126    127     1   0.15241 261918.400000
    127    665     1   0.13789 357815.680000
    127    132     1   0.12183 533627.360000
    128    129     1   0.15375 251793.120000
    129    130     1   0.14619 275056.160000
    147    149     1   0.14619 275056.160000
    149    151     1   0.15375 251793.120000
    151    155     1   0.15110 237065.440000
    155    156     1   0.15110 237065.440000
    155    157     1   0.15110 237065.440000
    156    167     1   0.15375 251793.120000
    157    159     1   0.15375 251793.120000
    159    163     1   0.15241 261918.400000
    163    164     1   0.12183 533627.360000
    163    195     1   0.13400 406935.840000
    167    170     1   0.15241 261918.400000
    170    171     1   0.12183 533627.360000
    170    219     1   0.13400 406935.840000
    172    173     1   0.15375 251793.120000
    172    183     1   0.15375 251793.120000
    172    190     1   0.14316 258236.480000
    173    175     1   0.15375 251793.120000
    173    193     1   0.14233 265014.560000
    175    176     1   0.15375 251793.120000
    175    182     1   0.14233 265014.560000
    176    177     1   0.15375 251793.120000
    176    195     1   0.14647 272713.120000
    177    181     1   0.14233 265014.560000
    177    190     1   0.14316 258236.480000
    183    188     1   0.14233 265014.560000
    196    197     1   0.15375 251793.120000
    196    207     1   0.15375 251793.120000
    196    214     1   0.14316 258236.480000
    197    199     1   0.15375 251793.120000
    197    217     1   0.14233 265014.560000
    199    200     1   0.15375 251793.120000
    199    206     1   0.14233 265014.560000
    200    201     1   0.15375 251793.120000
    200    219     1   0.14647 272713.120000
    201    205     1   0.14233 265014.560000
    201    214     1   0.14316 258236.480000
    207    212     1   0.14233 265014.560000
    221    223     1   0.14619 275056.160000
    223    225     1   0.15375 251793.120000
    225    229     1   0.15110 237065.440000
    229    230     1   0.15110 237065.440000
    229    231     1   0.15110 237065.440000
    230    241     1   0.15375 251793.120000
    231    233     1   0.15375 251793.120000
    233    237     1   0.15241 261918.400000
    237    238     1   0.12183 533627.360000
    237    269     1   0.13400 406935.840000
    241    244     1   0.15241 261918.400000
    244    245     1   0.12183 533627.360000
    244    293     1   0.13400 406935.840000
    246    247     1   0.15375 251793.120000
    246    257     1   0.15375 251793.120000
    246    264     1   0.14316 258236.480000
    247    249     1   0.15375 251793.120000
    247    267     1   0.14233 265014.560000
    249    250     1   0.15375 251793.120000
    249    256     1   0.14233 265014.560000
    250    251     1   0.15375 251793.120000
    250    269     1   0.14647 272713.120000
    251    255     1   0.14233 265014.560000
    251    264     1   0.14316 258236.480000
    257    262     1   0.14233 265014.560000
    270    271     1   0.15375 251793.120000
    270    281     1   0.15375 251793.120000
    270    288     1   0.14316 258236.480000
    271    273     1   0.15375 251793.120000
    271    291     1   0.14233 265014.560000
    273    274     1   0.15375 251793.120000
    273    280     1   0.14233 265014.560000
    274    275     1   0.15375 251793.120000
    274    293     1   0.14647 272713.120000
    275    279     1   0.14233 265014.560000
    275    288     1   0.14316 258236.480000
    281    286     1   0.14233 265014.560000
    295    297     1   0.14619 275056.160000
    297    299     1   0.15375 251793.120000
    299    303     1   0.15110 237065.440000
    303    304     1   0.15110 237065.440000
    303    305     1   0.15110 237065.440000
    304    315     1   0.15375 251793.120000
    305    307     1   0.15375 251793.120000
    307    311     1   0.15241 261918.400000
    311    312     1   0.12183 533627.360000
    311    343     1   0.13400 406935.840000
    315    318     1   0.15241 261918.400000
    318    319     1   0.12183 533627.360000
    318    367     1   0.13400 406935.840000
    320    321     1   0.15375 251793.120000
    320    331     1   0.15375 251793.120000
    320    338     1   0.14316 258236.480000
    321    323     1   0.15375 251793.120000
    321    341     1   0.14233 265014.560000
    323    324     1   0.15375 251793.120000
    323    330     1   0.14233 265014.560000
    324    325     1   0.15375 251793.120000
    324    343     1   0.14647 272713.120000
    325    329     1   0.14233 265014.560000
    325    338     1   0.14316 258236.480000
    331    336     1   0.14233 265014.560000
    344    345     1   0.15375 251793.120000
    344    355     1   0.15375 251793.120000
    344    362     1   0.14316 258236.480000
    345    347     1   0.15375 251793.120000
    345    365     1   0.14233 265014.560000
    347    348     1   0.15375 251793.120000
    347    354     1   0.14233 265014.560000
    348    349     1   0.15375 251793.120000
    348    367     1   0.14647 272713.120000
    349    353     1   0.14233 265014.560000
    349    362     1   0.14316 258236.480000
    355    360     1   0.14233 265014.560000
    369    371     1   0.14619 275056.160000
    371    373     1   0.15375 251793.120000
    373    377     1   0.15110 237065.440000
    377    378     1   0.15110 237065.440000
    377    379     1   0.15110 237065.440000
    378    389     1   0.15375 251793.120000
    379    381     1   0.15375 251793.120000
    381    385     1   0.15241 261918.400000
    385    386     1   0.12183 533627.360000
    385    417     1   0.13400 406935.840000
    389    392     1   0.15241 261918.400000
    392    393     1   0.12183 533627.360000
    392    441     1   0.13400 406935.840000
    394    395     1   0.15375 251793.120000
    394    405     1   0.15375 251793.120000
    394    412     1   0.14316 258236.480000
    395    397     1   0.15375 251793.120000
    395    415     1   0.14233 265014.560000
    397    398     1   0.15375 251793.120000
    397    404     1   0.14233 265014.560000
    398    399     1   0.15375 251793.120000
    398    417     1   0.14647 272713.120000
    399    403     1   0.14233 265014.560000
    399    412     1   0.14316 258236.480000
    405    410     1   0.14233 265014.560000
    418    419     1   0.15375 251793.120000
    418    429     1   0.15375 251793.120000
    418    436     1   0.14316 258236.480000
    419    421     1   0.15375 251793.120000
    419    439     1   0.14233 265014.560000
    421    422     1   0.15375 251793.120000
    421    428     1   0.14233 265014.560000
    422    423     1   0.15375 251793.120000
    422    441     1   0.14647 272713.120000
    423    427     1   0.14233 265014.560000
    423    436     1   0.14316 258236.480000
    429    434     1   0.14233 265014.560000
    443    445     1   0.14619 275056.160000
    445    447     1   0.15375 251793.120000
    447    451     1   0.15110 237065.440000
    451    452     1   0.15110 237065.440000
    451    453     1   0.15110 237065.440000
    452    463     1   0.15375 251793.120000
    453    455     1   0.15375 251793.120000
    455    459     1   0.15241 261918.400000
    459    460     1   0.12183 533627.360000
    459    491     1   0.13400 406935.840000
    463    466     1   0.15241 261918.400000
    466    467     1   0.12183 533627.360000
    466    515     1   0.13400 406935.840000
    468    469     1   0.15375 251793.120000
    468    479     1   0.15375 251793.120000
    468    486     1   0.14316 258236.480000
    469    471     1   0.15375 251793.120000
    469    489     1   0.14233 265014.560000
    471    472     1   0.15375 251793.120000
    471    478     1   0.14233 265014.560000
    472    473     1   0.15375 251793.120000
    472    491     1   0.14647 272713.120000
    473    477     1   0.14233 265014.560000
    473    486     1   0.14316 258236.480000
    479    484     1   0.14233 265014.560000
    492    493     1   0.15375 251793.120000
    492    503     1   0.15375 251793.120000
    492    510     1   0.14316 258236.480000
    493    495     1   0.15375 251793.120000
    493    513     1   0.14233 265014.560000
    495    496     1   0.15375 251793.120000
    495    502     1   0.14233 265014.560000
    496    497     1   0.15375 251793.120000
    496    515     1   0.14647 272713.120000
    497    501     1   0.14233 265014.560000
    497    510     1   0.14316 258236.480000
    503    508     1   0.14233 265014.560000
    517    519     1   0.14619 275056.160000
    519    521     1   0.15375 251793.120000
    521    525     1   0.15110 237065.440000
    525    526     1   0.15110 237065.440000
    525    527     1   0.15110 237065.440000
    526    537     1   0.15375 251793.120000
    527    529     1   0.15375 251793.120000
    529    533     1   0.15241 261918.400000
    533    534     1   0.12183 533627.360000
    533    565     1   0.13400 406935.840000
    537    540     1   0.15241 261918.400000
    540    541     1   0.12183 533627.360000
    540    589     1   0.13400 406935.840000
    542    543     1   0.15375 251793.120000
    542    553     1   0.15375 251793.120000
    542    560     1   0.14316 258236.480000
    543    545     1   0.15375 251793.120000
    543    563     1   0.14233 265014.560000
    545    546     1   0.15375 251793.120000
    545    552     1   0.14233 265014.560000
    546    547     1   0.15375 251793.120000
    546    565     1   0.14647 272713.120000
    547    551     1   0.14233 265014.560000
    547    560     1   0.14316 258236.480000
    553    558     1   0.14233 265014.560000
    566    567     1   0.15375 251793.120000
    566    577     1   0.15375 251793.120000
    566    584     1   0.14316 258236.480000
    567    569     1   0.15375 251793.120000
    567    587     1   0.14233 265014.560000
    569    570     1   0.15375 251793.120000
    569    576     1   0.14233 265014.560000
    570    571     1   0.15375 251793.120000
    570    589     1   0.14647 272713.120000
    571    575     1   0.14233 265014.560000
    571    584     1   0.14316 258236.480000
    577    582     1   0.14233 265014.560000
    591    593     1   0.14619 275056.160000
    593    595     1   0.15375 251793.120000
    595    599     1   0.15110 237065.440000
    599    600     1   0.15110 237065.440000
    599    601     1   0.15110 237065.440000
    600    611     1   0.15375 251793.120000
    601    603     1   0.15375 251793.120000
    603    607     1   0.15241 261918.400000
    607    608     1   0.12183 533627.360000
    607    639     1   0.13400 406935.840000
    611    614     1   0.15241 261918.400000
    614    615     1   0.12183 533627.360000
    614    663     1   0.13400 406935.840000
    616    617     1   0.15375 251793.120000
    616    627     1   0.15375 251793.120000
    616    634     1   0.14316 258236.480000
    617    619     1   0.15375 251793.120000
    617    637     1   0.14233 265014.560000
    619    620     1   0.15375 251793.120000
    619    626     1   0.14233 265014.560000
    620    621     1   0.15375 251793.120000
    620    639     1   0.14647 272713.120000
    621    625     1   0.14233 265014.560000
    621    634     1   0.14316 258236.480000
    627    632     1   0.14233 265014.560000
    640    641     1   0.15375 251793.120000
    640    651     1   0.15375 251793.120000
    640    658     1   0.14316 258236.480000
    641    643     1   0.15375 251793.120000
    641    661     1   0.14233 265014.560000
    643    644     1   0.15375 251793.120000
    643    650     1   0.14233 265014.560000
    644    645     1   0.15375 251793.120000
    644    663     1   0.14647 272713.120000
    645    649     1   0.14233 265014.560000
    645    658     1   0.14316 258236.480000
    651    656     1   0.14233 265014.560000
    665    667     1   0.14619 275056.160000
    667    669     1   0.15375 251793.120000
    669    673     1   0.15110 237065.440000
    673    674     1   0.15110 237065.440000
    673    675     1   0.15110 237065.440000
    674    685     1   0.15375 251793.120000
    675    677     1   0.15375 251793.120000
    677    681     1   0.15241 261918.400000
    681    682     1   0.12183 533627.360000
    681    713     1   0.13400 406935.840000
    685    688     1   0.15241 261918.400000
    688    689     1   0.12183 533627.360000
    688    737     1   0.13400 406935.840000
    690    691     1   0.15375 251793.120000
    690    701     1   0.15375 251793.120000
    690    708     1   0.14316 258236.480000
    691    693     1   0.15375 251793.120000
    691    711     1   0.14233 265014.560000
    693    694     1   0.15375 251793.120000
    693    700     1   0.14233 265014.560000
    694    695     1   0.15375 251793.120000
    694    713     1   0.14647 272713.120000
    695    699     1   0.14233 265014.560000
    695    708     1   0.14316 258236.480000
    701    706     1   0.14233 265014.560000
    714    715     1   0.15375 251793.120000
    714    725     1   0.15375 251793.120000
    714    732     1   0.14316 258236.480000
    715    717     1   0.15375 251793.120000
    715    735     1   0.14233 265014.560000
    717    718     1   0.15375 251793.120000
    717    724     1   0.14233 265014.560000
    718    719     1   0.15375 251793.120000
    718    737     1   0.14647 272713.120000
    719    723     1   0.14233 265014.560000
    719    732     1   0.14316 258236.480000
    725    730     1   0.14233 265014.560000
      1     41     1   0.10304 312293.760000
      2     21     1   0.10910 283424.160000
      2     22     1   0.10910 283424.160000
      3     23     1   0.10910 283424.160000
      3     24     1   0.10910 283424.160000
      4     42     1   0.10304 312293.760000
      5     25     1   0.10910 283424.160000
      5     26     1   0.10910 283424.160000
      6     27     1   0.10910 283424.160000
      6     28     1   0.10910 283424.160000
      7     29     1   0.10910 283424.160000
      7     30     1   0.10910 283424.160000
      8     31     1   0.10910 283424.160000
      8     32     1   0.10910 283424.160000
      9     33     1   0.10969 276646.080000
      9     34     1   0.10969 276646.080000
     11     35     1   0.10969 276646.080000
     11     36     1   0.10969 276646.080000
     13     37     1   0.10969 276646.080000
     13     38     1   0.10969 276646.080000
     15     39     1   0.10969 276646.080000
     15     40     1   0.10969 276646.080000
     43     68     1   0.10304 312293.760000
     44     55     1   0.10910 283424.160000
     44     56     1   0.10910 283424.160000
     45     57     1   0.10910 283424.160000
     45     58     1   0.10910 283424.160000
     46     59     1   0.10969 276646.080000
     46     60     1   0.10969 276646.080000
     48     61     1   0.10969 276646.080000
     48     62     1   0.10969 276646.080000
     50     63     1   0.10910 283424.160000
     50     64     1   0.10910 283424.160000
     51     65     1   0.10969 276646.080000
     51     66     1   0.10969 276646.080000
     52     67     1   0.10129 337397.760000
     69     94     1   0.10304 312293.760000
     70     81     1   0.10910 283424.160000
     70     82     1   0.10910 283424.160000
     71     83     1   0.10910 283424.160000
     71     84     1   0.10910 283424.160000
     72     85     1   0.10969 276646.080000
     72     86     1   0.10969 276646.080000
     74     87     1   0.10969 276646.080000
     74     88     1   0.10969 276646.080000
     76     89     1   0.10910 283424.160000
     76     90     1   0.10910 283424.160000
     77     91     1   0.10969 276646.080000
     77     92     1   0.10969 276646.080000
     78     93     1   0.10129 337397.760000
     95    120     1   0.10304 312293.760000
     96    107     1   0.10910 283424.160000
     96    108     1   0.10910 283424.160000
     97    109     1   0.10910 283424.160000
     97    110     1   0.10910 283424.160000
     98    111     1   0.10969 276646.080000
     98    112     1   0.10969 276646.080000
    100    113     1   0.10969 276646.080000
    100    114     1   0.10969 276646.080000
    102    115     1   0.10910 283424.160000
    102    116     1   0.10910 283424.160000
    103    117     1   0.10969 276646.080000
    103    118     1   0.10969 276646.080000
    104    119     1   0.10129 337397.760000
    121    146     1   0.10304 312293.760000
    122    133     1   0.10910 283424.160000
    122    134     1   0.10910 283424.160000
    123    135     1   0.10910 283424.160000
    123    136     1   0.10910 283424.160000
    124    137     1   0.10969 276646.080000
    124    138     1   0.10969 276646.080000
    126    139     1   0.10969 276646.080000
    126    140     1   0.10969 276646.080000
    128    141     1   0.10910 283424.160000
    128    142     1   0.10910 283424.160000
    129    143     1   0.10969 276646.080000
    129    144     1   0.10969 276646.080000
    130    145     1   0.10129 337397.760000
    147    148     1   0.10129 337397.760000
    149    150     1   0.10969 276646.080000
    149    152     1   0.10969 276646.080000
    151    153     1   0.10969 276646.080000
    151    154     1   0.10969 276646.080000
    155    220     1   0.10304 312293.760000
    156    165     1   0.10969 276646.080000
    156    166     1   0.10969 276646.080000
    157    158     1   0.10969 276646.080000
    157    160     1   0.10969 276646.080000
    159    161     1   0.10969 276646.080000
    159    162     1   0.10969 276646.080000
    167    168     1   0.10969 276646.080000
    167    169     1   0.10969 276646.080000
    172    174     1   0.10969 276646.080000
    173    192     1   0.10969 276646.080000
    175    179     1   0.10969 276646.080000
    176    178     1   0.10969 276646.080000
    177    180     1   0.10961 277566.560000
    181    191     1   0.09730 310787.520000
    182    184     1   0.09730 310787.520000
    183    186     1   0.10969 276646.080000
    183    187     1   0.10969 276646.080000
    185    195     1   0.10190 328360.320000
    188    189     1   0.09730 310787.520000
    193    194     1   0.09730 310787.520000
    196    198     1   0.10969 276646.080000
    197    216     1   0.10969 276646.080000
    199    203     1   0.10969 276646.080000
    200    202     1   0.10969 276646.080000
    201    204     1   0.10961 277566.560000
    205    215     1   0.09730 310787.520000
    206    208     1   0.09730 310787.520000
    207    210     1   0.10969 276646.080000
    207    211     1   0.10969 276646.080000
    209    219     1   0.10190 328360.320000
    212    213     1   0.09730 310787.520000
    217    218     1   0.09730 310787.520000
    221    222     1   0.10129 337397.760000
    223    224     1   0.10969 276646.080000
    223    226     1   0.10969 276646.080000
    225    227     1   0.10969 276646.080000
    225    228     1   0.10969 276646.080000
    229    294     1   0.10304 312293.760000
    230    239     1   0.10969 276646.080000
    230    240     1   0.10969 276646.080000
    231    232     1   0.10969 276646.080000
    231    234     1   0.10969 276646.080000
    233    235     1   0.10969 276646.080000
    233    236     1   0.10969 276646.080000
    241    242     1   0.10969 276646.080000
    241    243     1   0.10969 276646.080000
    246    248     1   0.10969 276646.080000
    247    266     1   0.10969 276646.080000
    249    253     1   0.10969 276646.080000
    250    252     1   0.10969 276646.080000
    251    254     1   0.10961 277566.560000
    255    265     1   0.09730 310787.520000
    256    258     1   0.09730 310787.520000
    257    260     1   0.10969 276646.080000
    257    261     1   0.10969 276646.080000
    259    269     1   0.10190 328360.320000
    262    263     1   0.09730 310787.520000
    267    268     1   0.09730 310787.520000
    270    272     1   0.10969 276646.080000
    271    290     1   0.10969 276646.080000
    273    277     1   0.10969 276646.080000
    274    276     1   0.10969 276646.080000
    275    278     1   0.10961 277566.560000
    279    289     1   0.09730 310787.520000
    280    282     1   0.09730 310787.520000
    281    284     1   0.10969 276646.080000
    281    285     1   0.10969 276646.080000
    283    293     1   0.10190 328360.320000
    286    287     1   0.09730 310787.520000
    291    292     1   0.09730 310787.520000
    295    296     1   0.10129 337397.760000
    297    298     1   0.10969 276646.080000
    297    300     1   0.10969 276646.080000
    299    301     1   0.10969 276646.080000
    299    302     1   0.10969 276646.080000
    303    368     1   0.10304 312293.760000
    304    313     1   0.10969 276646.080000
    304    314     1   0.10969 276646.080000
    305    306     1   0.10969 276646.080000
    305    308     1   0.10969 276646.080000
    307    309     1   0.10969 276646.080000
    307    310     1   0.10969 276646.080000
    315    316     1   0.10969 276646.080000
    315    317     1   0.10969 276646.080000
    320    322     1   0.10969 276646.080000
    321    340     1   0.10969 276646.080000
    323    327     1   0.10969 276646.080000
    324    326     1   0.10969 276646.080000
    325    328     1   0.10961 277566.560000
    329    339     1   0.09730 310787.520000
    330    332     1   0.09730 310787.520000
    331    334     1   0.10969 276646.080000
    331    335     1   0.10969 276646.080000
    333    343     1   0.10190 328360.320000
    336    337     1   0.09730 310787.520000
    341    342     1   0.09730 310787.520000
    344    346     1   0.10969 276646.080000
    345    364     1   0.10969 276646.080000
    347    351     1   0.10969 276646.080000
    348    350     1   0.10969 276646.080000
    349    352     1   0.10961 277566.560000
    353    363     1   0.09730 310787.520000
    354    356     1   0.09730 310787.520000
    355    358     1   0.10969 276646.080000
    355    359     1   0.10969 276646.080000
    357    367     1   0.10190 328360.320000
    360    361     1   0.09730 310787.520000
    365    366     1   0.09730 310787.520000
    369    370     1   0.10129 337397.760000
    371    372     1   0.10969 276646.080000
    371    374     1   0.10969 276646.080000
    373    375     1   0.10969 276646.080000
    373    376     1   0.10969 276646.080000
    377    442     1   0.10304 312293.760000
    378    387     1   0.10969 276646.080000
    378    388     1   0.10969 276646.080000
    379    380     1   0.10969 276646.080000
    379    382     1   0.10969 276646.080000
    381    383     1   0.10969 276646.080000
    381    384     1   0.10969 276646.080000
    389    390     1   0.10969 276646.080000
    389    391     1   0.10969 276646.080000
    394    396     1   0.10969 276646.080000
    395    414     1   0.10969 276646.080000
    397    401     1   0.10969 276646.080000
    398    400     1   0.10969 276646.080000
    399    402     1   0.10961 277566.560000
    403    413     1   0.09730 310787.520000
    404    406     1   0.09730 310787.520000
    405    408     1   0.10969 276646.080000
    405    409     1   0.10969 276646.080000
    407    417     1   0.10190 328360.320000
    410    411     1   0.09730 310787.520000
    415    416     1   0.09730 310787.520000
    418    420     1   0.10969 276646.080000
    419    438     1   0.10969 276646.080000
    421    425     1   0.10969 276646.080000
    422    424     1   0.10969 276646.080000
    423    426     1   0.10961 277566.560000
    427    437     1   0.09730 310787.520000
    428    430     1   0.09730 310787.520000
    429    432     1   0.10969 276646.080000
    429    433     1   0.10969 276646.080000
    431    441     1   0.10190 328360.320000
    434    435     1   0.09730 310787.520000
    439    440     1   0.09730 310787.520000
    443    444     1   0.10129 337397.760000
    445    446     1   0.10969 276646.080000
    445    448     1   0.10969 276646.080000
    447    449     1   0.10969 276646.080000
    447    450     1   0.10969 276646.080000
    451    516     1   0.10304 312293.760000
    452    461     1   0.10969 276646.080000
    452    462     1   0.10969 276646.080000
    453    454     1   0.10969 276646.080000
    453    456     1   0.10969 276646.080000
    455    457     1   0.10969 276646.080000
    455    458     1   0.10969 276646.080000
    463    464     1   0.10969 276646.080000
    463    465     1   0.10969 276646.080000
    468    470     1   0.10969 276646.080000
    469    488     1   0.10969 276646.080000
    471    475     1   0.10969 276646.080000
    472    474     1   0.10969 276646.080000
    473    476     1   0.10961 277566.560000
    477    487     1   0.09730 310787.520000
    478    480     1   0.09730 310787.520000
    479    482     1   0.10969 276646.080000
    479    483     1   0.10969 276646.080000
    481    491     1   0.10190 328360.320000
    484    485     1   0.09730 310787.520000
    489    490     1   0.09730 310787.520000
    492    494     1   0.10969 276646.080000
    493    512     1   0.10969 276646.080000
    495    499     1   0.10969 276646.080000
    496    498     1   0.10969 276646.080000
    497    500     1   0.10961 277566.560000
    501    511     1   0.09730 310787.520000
    502    504     1   0.09730 310787.520000
    503    506     1   0.10969 276646.080000
    503    507     1   0.10969 276646.080000
    505    515     1   0.10190 328360.320000
    508    509     1   0.09730 310787.520000
    513    514     1   0.09730 310787.520000
    517    518     1   0.10129 337397.760000
    519    520     1   0.10969 276646.080000
    519    522     1   0.10969 276646.080000
    521    523     1   0.10969 276646.080000
    521    524     1   0.10969 276646.080000
    525    590     1   0.10304 312293.760000
    526    535     1   0.10969 276646.080000
    526    536     1   0.10969 276646.080000
    527    528     1   0.10969 276646.080000
    527    530     1   0.10969 276646.080000
    529    531     1   0.10969 276646.080000
    529    532     1   0.10969 276646.080000
    537    538     1   0.10969 276646.080000
    537    539     1   0.10969 276646.080000
    542    544     1   0.10969 276646.080000
    543    562     1   0.10969 276646.080000
    545    549     1   0.10969 276646.080000
    546    548     1   0.10969 276646.080000
    547    550     1   0.10961 277566.560000
    551    561     1   0.09730 310787.520000
    552    554     1   0.09730 310787.520000
    553    556     1   0.10969 276646.080000
    553    557     1   0.10969 276646.080000
    555    565     1   0.10190 328360.320000
    558    559     1   0.09730 310787.520000
    563    564     1   0.09730 310787.520000
    566    568     1   0.10969 276646.080000
    567    586     1   0.10969 276646.080000
    569    573     1   0.10969 276646.080000
    570    572     1   0.10969 276646.080000
    571    574     1   0.10961 277566.560000
    575    585     1   0.09730 310787.520000
    576    578     1   0.09730 310787.520000
    577    580     1   0.10969 276646.080000
    577    581     1   0.10969 276646.080000
    579    589     1   0.10190 328360.320000
    582    583     1   0.09730 310787.520000
    587    588     1   0.09730 310787.520000
    591    592     1   0.10129 337397.760000
    593    594     1   0.10969 276646.080000
    593    596     1   0.10969 276646.080000
    595    597     1   0.10969 276646.080000
    595    598     1   0.10969 276646.080000
    599    664     1   0.10304 312293.760000
    600    609     1   0.10969 276646.080000
    600    610     1   0.10969 276646.080000
    601    602     1   0.10969 276646.080000
    601    604     1   0.10969 276646.080000
    603    605     1   0.10969 276646.080000
    603    606     1   0.10969 276646.080000
    611    612     1   0.10969 276646.080000
    611    613     1   0.10969 276646.080000
    616    618     1   0.10969 276646.080000
    617    636     1   0.10969 276646.080000
    619    623     1   0.10969 276646.080000
    620    622     1   0.10969 276646.080000
    621    624     1   0.10961 277566.560000
    625    635     1   0.09730 310787.520000
    626    628     1   0.09730 310787.520000
    627    630     1   0.10969 276646.080000
    627    631     1   0.10969 276646.080000
    629    639     1   0.10190 328360.320000
    632    633     1   0.09730 310787.520000
    637    638     1   0.09730 310787.520000
    640    642     1   0.10969 276646.080000
    641    660     1   0.10969 276646.080000
    643    647     1   0.10969 276646.080000
    644    646     1   0.10969 276646.080000
    645    648     1   0.10961 277566.560000
    649    659     1   0.09730 310787.520000
    650    652     1   0.09730 310787.520000
    651    654     1   0.10969 276646.080000
    651    655     1   0.10969 276646.080000
    653    663     1   0.10190 328360.320000
    656    657     1   0.09730 310787.520000
    661    662     1   0.09730 310787.520000
    665    666     1   0.10129 337397.760000
    667    668     1   0.10969 276646.080000
    667    670     1   0.10969 276646.080000
    669    671     1   0.10969 276646.080000
    669    672     1   0.10969 276646.080000
    673    738     1   0.10304 312293.760000
    674    683     1   0.10969 276646.080000
    674    684     1   0.10969 276646.080000
    675    676     1   0.10969 276646.080000
    675    678     1   0.10969 276646.080000
    677    679     1   0.10969 276646.080000
    677    680     1   0.10969 276646.080000
    685    686     1   0.10969 276646.080000
    685    687     1   0.10969 276646.080000
    690    692     1   0.10969 276646.080000
    691    710     1   0.10969 276646.080000
    693    697     1   0.10969 276646.080000
    694    696     1   0.10969 276646.080000
    695    698     1   0.10961 277566.560000
    699    709     1   0.09730 310787.520000
    700    702     1   0.09730 310787.520000
    701    704     1   0.10969 276646.080000
    701    705     1   0.10969 276646.080000
    703    713     1   0.10190 328360.320000
    706    707     1   0.09730 310787.520000
    711    712     1   0.09730 310787.520000
    714    716     1   0.10969 276646.080000
    715    734     1   0.10969 276646.080000
    717    721     1   0.10969 276646.080000
    718    720     1   0.10969 276646.080000
    719    722     1   0.10961 277566.560000
    723    733     1   0.09730 310787.520000
    724    726     1   0.09730 310787.520000
    725    728     1   0.10969 276646.080000
    725    729     1   0.10969 276646.080000
    727    737     1   0.10190 328360.320000
    730    731     1   0.09730 310787.520000
    735    736     1   0.09730 310787.520000

[ pairs ]
;    ai     aj funct         c0         c1         c2         c3
      1      4     1
      1     14     1
      1     16     1
      2     13     1
      2     15     1
      2      5     1
      2      6     1
      7      3     1
      8      3     1
      3     11     1
      3      9     1
      4     12     1
      4     10     1
      5      9     1
      5     17     1
      5     78     1
      6     11     1
      6     18     1
      6     52     1
      7     15     1
      7     20     1
      7    104     1
      8     13     1
      8     19     1
      8    130     1
      9     51     1
     10     50     1
     11     77     1
     12     76     1
     13    103     1
     14    102     1
     15    129     1
     16    128     1
     17     77     1
     18     51     1
     19    129     1
     20    103     1
     43     47     1
     43     49     1
     43     52     1
     44     48     1
     44     51     1
     44    147     1
     44     53     1
     45     46     1
     45     51     1
     45     54     1
     45    221     1
     46     50     1
     46    149     1
     47    151     1
     48     50     1
     48    223     1
     49    225     1
     53    149     1
     54    223     1
     69     73     1
     69     75     1
     69     78     1
     70     74     1
     70     77     1
     70    295     1
     70     79     1
     71     72     1
     71     77     1
     71     80     1
     71    369     1
     72     76     1
     72    297     1
     73    299     1
     74     76     1
     74    371     1
     75    373     1
     79    297     1
     80    371     1
     95     99     1
     95    101     1
     95    104     1
     96    100     1
     96    103     1
     96    443     1
     96    105     1
     97     98     1
     97    103     1
     97    106     1
     97    517     1
     98    102     1
     98    445     1
     99    447     1
    100    102     1
    100    519     1
    101    521     1
    105    445     1
    106    519     1
    121    125     1
    121    127     1
    121    130     1
    122    126     1
    122    129     1
    122    591     1
    122    131     1
    123    124     1
    123    129     1
    123    665     1
    123    132     1
    124    128     1
    124    593     1
    125    595     1
    126    128     1
    126    667     1
    127    669     1
    131    593     1
    132    667     1
    147    155     1
    149    156     1
    149    157     1
    151    167     1
    151    159     1
    155    170     1
    155    163     1
    156    159     1
    156    171     1
    156    219     1
    157    167     1
    157    164     1
    157    195     1
    159    176     1
    163    175     1
    163    177     1
    164    176     1
    167    200     1
    170    199     1
    170    201     1
    171    200     1
    172    176     1
    172    182     1
    172    181     1
    173    188     1
    173    177     1
    173    195     1
    175    183     1
    175    190     1
    175    181     1
    176    193     1
    177    182     1
    177    183     1
    181    195     1
    182    193     1
    182    195     1
    183    193     1
    188    190     1
    190    193     1
    190    195     1
    196    200     1
    196    206     1
    196    205     1
    197    212     1
    197    201     1
    197    219     1
    199    207     1
    199    214     1
    199    205     1
    200    217     1
    201    206     1
    201    207     1
    205    219     1
    206    217     1
    206    219     1
    207    217     1
    212    214     1
    214    217     1
    214    219     1
    221    229     1
    223    230     1
    223    231     1
    225    241     1
    225    233     1
    229    244     1
    229    237     1
    230    245     1
    230    293     1
    230    233     1
    231    238     1
    231    269     1
    231    241     1
    233    250     1
    237    251     1
    237    249     1
    238    250     1
    241    274     1
    244    275     1
    244    273     1
    245    274     1
    246    250     1
    246    256     1
    246    255     1
    247    251     1
    247    269     1
    247    262     1
    249    255     1
    249    264     1
    249    257     1
    250    267     1
    251    257     1
    251    256     1
    255    269     1
    256    269     1
    256    267     1
    257    267     1
    262    264     1
    264    269     1
    264    267     1
    270    274     1
    270    280     1
    270    279     1
    271    275     1
    271    293     1
    271    286     1
    273    279     1
    273    288     1
    273    281     1
    274    291     1
    275    281     1
    275    280     1
    279    293     1
    280    293     1
    280    291     1
    281    291     1
    286    288     1
    288    293     1
    288    291     1
    295    303     1
    297    304     1
    297    305     1
    299    315     1
    299    307     1
    303    318     1
    303    311     1
    304    307     1
    304    319     1
    304    367     1
    305    315     1
    305    312     1
    305    343     1
    307    324     1
    311    323     1
    311    325     1
    312    324     1
    315    348     1
    318    347     1
    318    349     1
    319    348     1
    320    324     1
    320    330     1
    320    329     1
    321    336     1
    321    325     1
    321    343     1
    323    331     1
    323    338     1
    323    329     1
    324    341     1
    325    330     1
    325    331     1
    329    343     1
    330    341     1
    330    343     1
    331    341     1
    336    338     1
    338    341     1
    338    343     1
    344    348     1
    344    354     1
    344    353     1
    345    360     1
    345    349     1
    345    367     1
    347    355     1
    347    362     1
    347    353     1
    348    365     1
    349    354     1
    349    355     1
    353    367     1
    354    365     1
    354    367     1
    355    365     1
    360    362     1
    362    365     1
    362    367     1
    369    377     1
    371    378     1
    371    379     1
    373    389     1
    373    381     1
    377    392     1
    377    385     1
    378    393     1
    378    441     1
    378    381     1
    379    386     1
    379    417     1
    379    389     1
    381    398     1
    385    399     1
    385    397     1
    386    398     1
    389    422     1
    392    423     1
    392    421     1
    393    422     1
    394    398     1
    394    404     1
    394    403     1
    395    399     1
    395    417     1
    395    410     1
    397    403     1
    397    412     1
    397    405     1
    398    415     1
    399    405     1
    399    404     1
    403    417     1
    404    417     1
    404    415     1
    405    415     1
    410    412     1
    412    417     1
    412    415     1
    418    422     1
    418    428     1
    418    427     1
    419    423     1
    419    441     1
    419    434     1
    421    427     1
    421    436     1
    421    429     1
    422    439     1
    423    429     1
    423    428     1
    427    441     1
    428    441     1
    428    439     1
    429    439     1
    434    436     1
    436    441     1
    436    439     1
    443    451     1
    445    452     1
    445    453     1
    447    463     1
    447    455     1
    451    466     1
    451    459     1
    452    455     1
    452    467     1
    452    515     1
    453    463     1
    453    460     1
    453    491     1
    455    472     1
    459    471     1
    459    473     1
    460    472     1
    463    496     1
    466    495     1
    466    497     1
    467    496     1
    468    472     1
    468    478     1
    468    477     1
    469    484     1
    469    473     1
    469    491     1
    471    479     1
    471    486     1
    471    477     1
    472    489     1
    473    478     1
    473    479     1
    477    491     1
    478    489     1
    478    491     1
    479    489     1
    484    486     1
    486    489     1
    486    491     1
    492    496     1
    492    502     1
    492    501     1
    493    508     1
    493    497     1
    493    515     1
    495    503     1
    495    510     1
    495    501     1
    496    513     1
    497    502     1
    497    503     1
    501    515     1
    502    513     1
    502    515     1
    503    513     1
    508    510     1
    510    513     1
    510    515     1
    517    525     1
    519    526     1
    519    527     1
    521    537     1
    521    529     1
    525    540     1
    525    533     1
    526    541     1
    526    589     1
    526    529     1
    527    534     1
    527    565     1
    527    537     1
    529    546     1
    533    547     1
    533    545     1
    534    546     1
    537    570     1
    540    571     1
    540    569     1
    541    570     1
    542    546     1
    542    552     1
    542    551     1
    543    547     1
    543    565     1
    543    558     1
    545    551     1
    545    560     1
    545    553     1
    546    563     1
    547    553     1
    547    552     1
    551    565     1
    552    565     1
    552    563     1
    553    563     1
    558    560     1
    560    565     1
    560    563     1
    566    570     1
    566    576     1
    566    575     1
    567    571     1
    567    589     1
    567    582     1
    569    575     1
    569    584     1
    569    577     1
    570    587     1
    571    577     1
    571    576     1
    575    589     1
    576    589     1
    576    587     1
    577    587     1
    582    584     1
    584    589     1
    584    587     1
    591    599     1
    593    600     1
    593    601     1
    595    611     1
    595    603     1
    599    614     1
    599    607     1
    600    603     1
    600    615     1
    600    663     1
    601    611     1
    601    608     1
    601    639     1
    603    620     1
    607    619     1
    607    621     1
    608    620     1
    611    644     1
    614    643     1
    614    645     1
    615    644     1
    616    620     1
    616    626     1
    616    625     1
    617    632     1
    617    621     1
    617    639     1
    619    627     1
    619    634     1
    619    625     1
    620    637     1
    621    626     1
    621    627     1
    625    639     1
    626    637     1
    626    639     1
    627    637     1
    632    634     1
    634    637     1
    634    639     1
    640    644     1
    640    650     1
    640    649     1
    641    656     1
    641    645     1
    641    663     1
    643    651     1
    643    658     1
    643    649     1
    644    661     1
    645    650     1
    645    651     1
    649    663     1
    650    661     1
    650    663     1
    651    661     1
    656    658     1
    658    661     1
    658    663     1
    665    673     1
    667    674     1
    667    675     1
    669    685     1
    669    677     1
    673    688     1
    673    681     1
    674    689     1
    674    737     1
    674    677     1
    675    682     1
    675    713     1
    675    685     1
    677    694     1
    681    695     1
    681    693     1
    682    694     1
    685    718     1
    688    719     1
    688    717     1
    689    718     1
    690    694     1
    690    700     1
    690    699     1
    691    695     1
    691    713     1
    691    706     1
    693    699     1
    693    708     1
    693    701     1
    694    711     1
    695    701     1
    695    700     1
    699    713     1
    700    713     1
    700    711     1
    701    711     1
    706    708     1
    708    713     1
    708    711     1
    714    718     1
    714    724     1
    714    723     1
    715    719     1
    715    737     1
    715    730     1
    717    723     1
    717    732     1
    717    725     1
    718    735     1
    719    725     1
    719    724     1
    723    737     1
    724    737     1
    724    735     1
    725    735     1
    730    732     1
    732    737     1
    732    735     1
      1     23     1
      1     24     1
      1     37     1
      1     38     1
      1     39     1
      1     40     1
      2     29     1
      2     30     1
      2     31     1
      2     32     1
      2     42     1
     41      3     1
      3     25     1
      3     26     1
      3     27     1
      3     28     1
      4     21     1
      4     22     1
      4     35     1
      4     36     1
      4     33     1
      4     34     1
      5     23     1
      5     24     1
      5     27     1
      5     28     1
      6     23     1
      6     24     1
      6     25     1
      6     26     1
      7     21     1
      7     22     1
      7     31     1
      7     32     1
      8     21     1
      8     22     1
      8     29     1
      8     30     1
      9     42     1
      9     67     1
     10     27     1
     10     28     1
     10     65     1
     10     66     1
     11     42     1
     11     93     1
     12     25     1
     12     26     1
     12     91     1
     12     92     1
     41     13     1
     13    119     1
     14     29     1
     14     30     1
     14    117     1
     14    118     1
     41     15     1
     15    145     1
     16     31     1
     16     32     1
     16    143     1
     16    144     1
     17     35     1
     17     36     1
     17     93     1
     18     33     1
     18     34     1
     18     67     1
     19     39     1
     19     40     1
     19    145     1
     20     37     1
     20     38     1
     20    119     1
     41     21     1
     21     23     1
     21     24     1
     41     22     1
     22     23     1
     22     24     1
     23     42     1
     24     42     1
     25     42     1
     25     35     1
     25     36     1
     26     42     1
     26     35     1
     26     36     1
     27     42     1
     27     33     1
     27     34     1
     28     42     1
     28     33     1
     28     34     1
     41     29     1
     29     37     1
     29     38     1
     41     30     1
     30     37     1
     30     38     1
     41     31     1
     31     39     1
     31     40     1
     41     32     1
     32     39     1
     32     40     1
     33     52     1
     34     52     1
     35     78     1
     36     78     1
     37    104     1
     38    104     1
     39    130     1
     40    130     1
     43     59     1
     43     60     1
     43     61     1
     43     62     1
     43     65     1
     43     66     1
     44     57     1
     44     58     1
     44     63     1
     44     64     1
     45     55     1
     45     56     1
     45     63     1
     45     64     1
     46     68     1
     46    148     1
     47     55     1
     47     56     1
     47    150     1
     47    152     1
     48     68     1
     48    222     1
     49     57     1
     49     58     1
     49    224     1
     49    226     1
     50     55     1
     50     56     1
     50     57     1
     50     58     1
     50     67     1
     51     68     1
     52     63     1
     52     64     1
     53     59     1
     53     60     1
     53    148     1
     54     61     1
     54     62     1
     54    222     1
     55     68     1
     55     59     1
     55     60     1
     56     68     1
     56     59     1
     56     60     1
     57     68     1
     57     61     1
     57     62     1
     58     68     1
     58     61     1
     58     62     1
     59    147     1
     60    147     1
     61    221     1
     62    221     1
     63     68     1
     63     65     1
     63     66     1
     64     68     1
     64     65     1
     64     66     1
     65     67     1
     66     67     1
     69     85     1
     69     86     1
     69     87     1
     69     88     1
     69     91     1
     69     92     1
     70     83     1
     70     84     1
     70     89     1
     70     90     1
     71     81     1
     71     82     1
     71     89     1
     71     90     1
     72     94     1
     72    296     1
     73     81     1
     73     82     1
     73    298     1
     73    300     1
     74     94     1
     74    370     1
     75     83     1
     75     84     1
     75    372     1
     75    374     1
     76     81     1
     76     82     1
     76     83     1
     76     84     1
     76     93     1
     77     94     1
     78     89     1
     78     90     1
     79     85     1
     79     86     1
     79    296     1
     80     87     1
     80     88     1
     80    370     1
     81     94     1
     81     85     1
     81     86     1
     82     94     1
     82     85     1
     82     86     1
     83     94     1
     83     87     1
     83     88     1
     84     94     1
     84     87     1
     84     88     1
     85    295     1
     86    295     1
     87    369     1
     88    369     1
     89     94     1
     89     91     1
     89     92     1
     90     94     1
     90     91     1
     90     92     1
     91     93     1
     92     93     1
     95    111     1
     95    112     1
     95    113     1
     95    114     1
     95    117     1
     95    118     1
     96    109     1
     96    110     1
     96    115     1
     96    116     1
     97    107     1
     97    108     1
     97    115     1
     97    116     1
     98    120     1
     98    444     1
     99    107     1
     99    108     1
     99    446     1
     99    448     1
    100    120     1
    100    518     1
    101    109     1
    101    110     1
    101    520     1
    101    522     1
    102    107     1
    102    108     1
    102    109     1
    102    110     1
    102    119     1
    103    120     1
    104    115     1
    104    116     1
    105    111     1
    105    112     1
    105    444     1
    106    113     1
    106    114     1
    106    518     1
    107    120     1
    107    111     1
    107    112     1
    108    120     1
    108    111     1
    108    112     1
    109    120     1
    109    113     1
    109    114     1
    110    120     1
    110    113     1
    110    114     1
    111    443     1
    112    443     1
    113    517     1
    114    517     1
    115    120     1
    115    117     1
    115    118     1
    116    120     1
    116    117     1
    116    118     1
    117    119     1
    118    119     1
    121    137     1
    121    138     1
    121    139     1
    121    140     1
    121    143     1
    121    144     1
    122    135     1
    122    136     1
    122    141     1
    122    142     1
    123    133     1
    123    134     1
    123    141     1
    123    142     1
    124    146     1
    124    592     1
    125    133     1
    125    134     1
    125    594     1
    125    596     1
    126    146     1
    126    666     1
    127    135     1
    127    136     1
    127    668     1
    127    670     1
    128    133     1
    128    134     1
    128    135     1
    128    136     1
    128    145     1
    129    146     1
    130    141     1
    130    142     1
    131    137     1
    131    138     1
    131    592     1
    132    139     1
    132    140     1
    132    666     1
    133    146     1
    133    137     1
    133    138     1
    134    146     1
    134    137     1
    134    138     1
    135    146     1
    135    139     1
    135    140     1
    136    146     1
    136    139     1
    136    140     1
    137    591     1
    138    591     1
    139    665     1
    140    665     1
    141    146     1
    141    143     1
    141    144     1
    142    146     1
    142    143     1
    142    144     1
    143    145     1
    144    145     1
    147    153     1
    147    154     1
    148    151     1
    148    150     1
    148    152     1
    149    220     1
    150    155     1
    150    153     1
    150    154     1
    151    165     1
    151    166     1
    151    158     1
    151    160     1
    152    155     1
    152    153     1
    152    154     1
    153    156     1
    153    157     1
    153    220     1
    154    156     1
    154    157     1
    154    220     1
    155    168     1
    155    169     1
    155    161     1
    155    162     1
    156    158     1
    156    160     1
    157    165     1
    157    166     1
    158    220     1
    158    163     1
    158    161     1
    158    162     1
    159    220     1
    159    185     1
    160    220     1
    160    163     1
    160    161     1
    160    162     1
    161    164     1
    161    195     1
    162    164     1
    162    195     1
    163    178     1
    164    185     1
    165    220     1
    165    170     1
    165    168     1
    165    169     1
    166    220     1
    166    170     1
    166    168     1
    166    169     1
    167    220     1
    167    209     1
    168    171     1
    168    219     1
    169    171     1
    169    219     1
    170    202     1
    171    209     1
    172    179     1
    172    194     1
    172    189     1
    172    180     1
    173    186     1
    173    187     1
    173    178     1
    173    184     1
    174    175     1
    174    193     1
    174    192     1
    174    188     1
    174    186     1
    174    187     1
    174    177     1
    175    194     1
    175    180     1
    175    185     1
    176    192     1
    176    184     1
    176    191     1
    177    179     1
    177    185     1
    178    182     1
    178    179     1
    178    181     1
    178    190     1
    178    180     1
    178    185     1
    179    193     1
    179    192     1
    179    195     1
    179    184     1
    180    195     1
    180    191     1
    182    192     1
    183    192     1
    186    190     1
    186    189     1
    187    190     1
    187    189     1
    190    192     1
    190    191     1
    192    194     1
    196    203     1
    196    218     1
    196    213     1
    196    204     1
    197    210     1
    197    211     1
    197    202     1
    197    208     1
    198    199     1
    198    217     1
    198    216     1
    198    212     1
    198    210     1
    198    211     1
    198    201     1
    199    218     1
    199    204     1
    199    209     1
    200    216     1
    200    208     1
    200    215     1
    201    203     1
    201    209     1
    202    206     1
    202    203     1
    202    205     1
    202    214     1
    202    204     1
    202    209     1
    203    217     1
    203    216     1
    203    219     1
    203    208     1
    204    219     1
    204    215     1
    206    216     1
    207    216     1
    210    214     1
    210    213     1
    211    214     1
    211    213     1
    214    216     1
    214    215     1
    216    218     1
    221    227     1
    221    228     1
    222    225     1
    222    224     1
    222    226     1
    223    294     1
    224    229     1
    224    227     1
    224    228     1
    225    239     1
    225    240     1
    225    232     1
    225    234     1
    226    229     1
    226    227     1
    226    228     1
    227    230     1
    227    231     1
    227    294     1
    228    230     1
    228    231     1
    228    294     1
    229    242     1
    229    243     1
    229    235     1
    229    236     1
    230    232     1
    230    234     1
    231    239     1
    231    240     1
    232    237     1
    232    235     1
    232    236     1
    232    294     1
    233    259     1
    233    294     1
    234    237     1
    234    235     1
    234    236     1
    234    294     1
    235    238     1
    235    269     1
    236    238     1
    236    269     1
    237    252     1
    238    259     1
    239    244     1
    239    242     1
    239    243     1
    239    294     1
    240    244     1
    240    242     1
    240    243     1
    240    294     1
    241    283     1
    241    294     1
    242    245     1
    242    293     1
    243    245     1
    243    293     1
    244    276     1
    245    283     1
    246    253     1
    246    268     1
    246    263     1
    246    254     1
    247    252     1
    247    258     1
    247    260     1
    247    261     1
    248    249     1
    248    267     1
    248    266     1
    248    262     1
    248    260     1
    248    261     1
    248    251     1
    249    254     1
    249    259     1
    249    268     1
    250    265     1
    250    258     1
    250    266     1
    251    259     1
    251    253     1
    252    255     1
    252    264     1
    252    254     1
    252    259     1
    252    256     1
    252    253     1
    253    269     1
    253    258     1
    253    267     1
    253    266     1
    254    265     1
    254    269     1
    256    266     1
    257    266     1
    260    263     1
    260    264     1
    261    263     1
    261    264     1
    264    265     1
    264    266     1
    266    268     1
    270    277     1
    270    292     1
    270    287     1
    270    278     1
    271    276     1
    271    282     1
    271    284     1
    271    285     1
    272    273     1
    272    291     1
    272    290     1
    272    286     1
    272    284     1
    272    285     1
    272    275     1
    273    278     1
    273    283     1
    273    292     1
    274    289     1
    274    282     1
    274    290     1
    275    283     1
    275    277     1
    276    279     1
    276    288     1
    276    278     1
    276    283     1
    276    280     1
    276    277     1
    277    293     1
    277    282     1
    277    291     1
    277    290     1
    278    289     1
    278    293     1
    280    290     1
    281    290     1
    284    287     1
    284    288     1
    285    287     1
    285    288     1
    288    289     1
    288    290     1
    290    292     1
    295    301     1
    295    302     1
    296    299     1
    296    298     1
    296    300     1
    297    368     1
    298    303     1
    298    301     1
    298    302     1
    299    313     1
    299    314     1
    299    306     1
    299    308     1
    300    303     1
    300    301     1
    300    302     1
    301    304     1
    301    305     1
    301    368     1
    302    304     1
    302    305     1
    302    368     1
    303    316     1
    303    317     1
    303    309     1
    303    310     1
    304    306     1
    304    308     1
    305    313     1
    305    314     1
    306    368     1
    306    311     1
    306    309     1
    306    310     1
    307    368     1
    307    333     1
    308    368     1
    308    311     1
    308    309     1
    308    310     1
    309    312     1
    309    343     1
    310    312     1
    310    343     1
    311    326     1
    312    333     1
    313    368     1
    313    318     1
    313    316     1
    313    317     1
    314    368     1
    314    318     1
    314    316     1
    314    317     1
    315    368     1
    315    357     1
    316    319     1
    316    367     1
    317    319     1
    317    367     1
    318    350     1
    319    357     1
    320    327     1
    320    342     1
    320    337     1
    320    328     1
    321    334     1
    321    335     1
    321    326     1
    321    332     1
    322    323     1
    322    341     1
    322    340     1
    322    336     1
    322    334     1
    322    335     1
    322    325     1
    323    342     1
    323    328     1
    323    333     1
    324    340     1
    324    332     1
    324    339     1
    325    327     1
    325    333     1
    326    330     1
    326    327     1
    326    329     1
    326    338     1
    326    328     1
    326    333     1
    327    341     1
    327    340     1
    327    343     1
    327    332     1
    328    343     1
    328    339     1
    330    340     1
    331    340     1
    334    338     1
    334    337     1
    335    338     1
    335    337     1
    338    340     1
    338    339     1
    340    342     1
    344    351     1
    344    366     1
    344    361     1
    344    352     1
    345    358     1
    345    359     1
    345    350     1
    345    356     1
    346    347     1
    346    365     1
    346    364     1
    346    360     1
    346    358     1
    346    359     1
    346    349     1
    347    366     1
    347    352     1
    347    357     1
    348    364     1
    348    356     1
    348    363     1
    349    351     1
    349    357     1
    350    354     1
    350    351     1
    350    353     1
    350    362     1
    350    352     1
    350    357     1
    351    365     1
    351    364     1
    351    367     1
    351    356     1
    352    367     1
    352    363     1
    354    364     1
    355    364     1
    358    362     1
    358    361     1
    359    362     1
    359    361     1
    362    364     1
    362    363     1
    364    366     1
    369    375     1
    369    376     1
    370    373     1
    370    372     1
    370    374     1
    371    442     1
    372    377     1
    372    375     1
    372    376     1
    373    387     1
    373    388     1
    373    380     1
    373    382     1
    374    377     1
    374    375     1
    374    376     1
    375    378     1
    375    379     1
    375    442     1
    376    378     1
    376    379     1
    376    442     1
    377    390     1
    377    391     1
    377    383     1
    377    384     1
    378    380     1
    378    382     1
    379    387     1
    379    388     1
    380    385     1
    380    383     1
    380    384     1
    380    442     1
    381    407     1
    381    442     1
    382    385     1
    382    383     1
    382    384     1
    382    442     1
    383    386     1
    383    417     1
    384    386     1
    384    417     1
    385    400     1
    386    407     1
    387    392     1
    387    390     1
    387    391     1
    387    442     1
    388    392     1
    388    390     1
    388    391     1
    388    442     1
    389    431     1
    389    442     1
    390    393     1
    390    441     1
    391    393     1
    391    441     1
    392    424     1
    393    431     1
    394    401     1
    394    416     1
    394    411     1
    394    402     1
    395    400     1
    395    406     1
    395    408     1
    395    409     1
    396    397     1
    396    415     1
    396    414     1
    396    410     1
    396    408     1
    396    409     1
    396    399     1
    397    402     1
    397    407     1
    397    416     1
    398    413     1
    398    406     1
    398    414     1
    399    407     1
    399    401     1
    400    403     1
    400    412     1
    400    402     1
    400    407     1
    400    404     1
    400    401     1
    401    417     1
    401    406     1
    401    415     1
    401    414     1
    402    413     1
    402    417     1
    404    414     1
    405    414     1
    408    411     1
    408    412     1
    409    411     1
    409    412     1
    412    413     1
    412    414     1
    414    416     1
    418    425     1
    418    440     1
    418    435     1
    418    426     1
    419    424     1
    419    430     1
    419    432     1
    419    433     1
    420    421     1
    420    439     1
    420    438     1
    420    434     1
    420    432     1
    420    433     1
    420    423     1
    421    426     1
    421    431     1
    421    440     1
    422    437     1
    422    430     1
    422    438     1
    423    431     1
    423    425     1
    424    427     1
    424    436     1
    424    426     1
    424    431     1
    424    428     1
    424    425     1
    425    441     1
    425    430     1
    425    439     1
    425    438     1
    426    437     1
    426    441     1
    428    438     1
    429    438     1
    432    435     1
    432    436     1
    433    435     1
    433    436     1
    436    437     1
    436    438     1
    438    440     1
    443    449     1
    443    450     1
    444    447     1
    444    446     1
    444    448     1
    445    516     1
    446    451     1
    446    449     1
    446    450     1
    447    461     1
    447    462     1
    447    454     1
    447    456     1
    448    451     1
    448    449     1
    448    450     1
    449    452     1
    449    453     1
    449    516     1
    450    452     1
    450    453     1
    450    516     1
    451    464     1
    451    465     1
    451    457     1
    451    458     1
    452    454     1
    452    456     1
    453    461     1
    453    462     1
    454    516     1
    454    459     1
    454    457     1
    454    458     1
    455    516     1
    455    481     1
    456    516     1
    456    459     1
    456    457     1
    456    458     1
    457    460     1
    457    491     1
    458    460     1
    458    491     1
    459    474     1
    460    481     1
    461    516     1
    461    466     1
    461    464     1
    461    465     1
    462    516     1
    462    466     1
    462    464     1
    462    465     1
    463    516     1
    463    505     1
    464    467     1
    464    515     1
    465    467     1
    465    515     1
    466    498     1
    467    505     1
    468    475     1
    468    490     1
    468    485     1
    468    476     1
    469    482     1
    469    483     1
    469    474     1
    469    480     1
    470    471     1
    470    489     1
    470    488     1
    470    484     1
    470    482     1
    470    483     1
    470    473     1
    471    490     1
    471    476     1
    471    481     1
    472    488     1
    472    480     1
    472    487     1
    473    475     1
    473    481     1
    474    478     1
    474    475     1
    474    477     1
    474    486     1
    474    476     1
    474    481     1
    475    489     1
    475    488     1
    475    491     1
    475    480     1
    476    491     1
    476    487     1
    478    488     1
    479    488     1
    482    486     1
    482    485     1
    483    486     1
    483    485     1
    486    488     1
    486    487     1
    488    490     1
    492    499     1
    492    514     1
    492    509     1
    492    500     1
    493    506     1
    493    507     1
    493    498     1
    493    504     1
    494    495     1
    494    513     1
    494    512     1
    494    508     1
    494    506     1
    494    507     1
    494    497     1
    495    514     1
    495    500     1
    495    505     1
    496    512     1
    496    504     1
    496    511     1
    497    499     1
    497    505     1
    498    502     1
    498    499     1
    498    501     1
    498    510     1
    498    500     1
    498    505     1
    499    513     1
    499    512     1
    499    515     1
    499    504     1
    500    515     1
    500    511     1
    502    512     1
    503    512     1
    506    510     1
    506    509     1
    507    510     1
    507    509     1
    510    512     1
    510    511     1
    512    514     1
    517    523     1
    517    524     1
    518    521     1
    518    520     1
    518    522     1
    519    590     1
    520    525     1
    520    523     1
    520    524     1
    521    535     1
    521    536     1
    521    528     1
    521    530     1
    522    525     1
    522    523     1
    522    524     1
    523    526     1
    523    527     1
    523    590     1
    524    526     1
    524    527     1
    524    590     1
    525    538     1
    525    539     1
    525    531     1
    525    532     1
    526    528     1
    526    530     1
    527    535     1
    527    536     1
    528    533     1
    528    531     1
    528    532     1
    528    590     1
    529    555     1
    529    590     1
    530    533     1
    530    531     1
    530    532     1
    530    590     1
    531    534     1
    531    565     1
    532    534     1
    532    565     1
    533    548     1
    534    555     1
    535    540     1
    535    538     1
    535    539     1
    535    590     1
    536    540     1
    536    538     1
    536    539     1
    536    590     1
    537    579     1
    537    590     1
    538    541     1
    538    589     1
    539    541     1
    539    589     1
    540    572     1
    541    579     1
    542    549     1
    542    564     1
    542    559     1
    542    550     1
    543    548     1
    543    554     1
    543    556     1
    543    557     1
    544    545     1
    544    563     1
    544    562     1
    544    558     1
    544    556     1
    544    557     1
    544    547     1
    545    550     1
    545    555     1
    545    564     1
    546    561     1
    546    554     1
    546    562     1
    547    555     1
    547    549     1
    548    551     1
    548    560     1
    548    550     1
    548    555     1
    548    552     1
    548    549     1
    549    565     1
    549    554     1
    549    563     1
    549    562     1
    550    561     1
    550    565     1
    552    562     1
    553    562     1
    556    559     1
    556    560     1
    557    559     1
    557    560     1
    560    561     1
    560    562     1
    562    564     1
    566    573     1
    566    588     1
    566    583     1
    566    574     1
    567    572     1
    567    578     1
    567    580     1
    567    581     1
    568    569     1
    568    587     1
    568    586     1
    568    582     1
    568    580     1
    568    581     1
    568    571     1
    569    574     1
    569    579     1
    569    588     1
    570    585     1
    570    578     1
    570    586     1
    571    579     1
    571    573     1
    572    575     1
    572    584     1
    572    574     1
    572    579     1
    572    576     1
    572    573     1
    573    589     1
    573    578     1
    573    587     1
    573    586     1
    574    585     1
    574    589     1
    576    586     1
    577    586     1
    580    583     1
    580    584     1
    581    583     1
    581    584     1
    584    585     1
    584    586     1
    586    588     1
    591    597     1
    591    598     1
    592    595     1
    592    594     1
    592    596     1
    593    664     1
    594    599     1
    594    597     1
    594    598     1
    595    609     1
    595    610     1
    595    602     1
    595    604     1
    596    599     1
    596    597     1
    596    598     1
    597    600     1
    597    601     1
    597    664     1
    598    600     1
    598    601     1
    598    664     1
    599    612     1
    599    613     1
    599    605     1
    599    606     1
    600    602     1
    600    604     1
    601    609     1
    601    610     1
    602    664     1
    602    607     1
    602    605     1
    602    606     1
    603    664     1
    603    629     1
    604    664     1
    604    607     1
    604    605     1
    604    606     1
    605    608     1
    605    639     1
    606    608     1
    606    639     1
    607    622     1
    608    629     1
    609    664     1
    609    614     1
    609    612     1
    609    613     1
    610    664     1
    610    614     1
    610    612     1
    610    613     1
    611    664     1
    611    653     1
    612    615     1
    612    663     1
    613    615     1
    613    663     1
    614    646     1
    615    653     1
    616    623     1
    616    638     1
    616    633     1
    616    624     1
    617    630     1
    617    631     1
    617    622     1
    617    628     1
    618    619     1
    618    637     1
    618    636     1
    618    632     1
    618    630     1
    618    631     1
    618    621     1
    619    638     1
    619    624     1
    619    629     1
    620    636     1
    620    628     1
    620    635     1
    621    623     1
    621    629     1
    622    626     1
    622    623     1
    622    625     1
    622    634     1
    622    624     1
    622    629     1
    623    637     1
    623    636     1
    623    639     1
    623    628     1
    624    639     1
    624    635     1
    626    636     1
    627    636     1
    630    634     1
    630    633     1
    631    634     1
    631    633     1
    634    636     1
    634    635     1
    636    638     1
    640    647     1
    640    662     1
    640    657     1
    640    648     1
    641    654     1
    641    655     1
    641    646     1
    641    652     1
    642    643     1
    642    661     1
    642    660     1
    642    656     1
    642    654     1
    642    655     1
    642    645     1
    643    662     1
    643    648     1
    643    653     1
    644    660     1
    644    652     1
    644    659     1
    645    647     1
    645    653     1
    646    650     1
    646    647     1
    646    649     1
    646    658     1
    646    648     1
    646    653     1
    647    661     1
    647    660     1
    647    663     1
    647    652     1
    648    663     1
    648    659     1
    650    660     1
    651    660     1
    654    658     1
    654    657     1
    655    658     1
    655    657     1
    658    660     1
    658    659     1
    660    662     1
    665    671     1
    665    672     1
    666    669     1
    666    668     1
    666    670     1
    667    738     1
    668    673     1
    668    671     1
    668    672     1
    669    683     1
    669    684     1
    669    676     1
    669    678     1
    670    673     1
    670    671     1
    670    672     1
    671    674     1
    671    675     1
    671    738     1
    672    674     1
    672    675     1
    672    738     1
    673    686     1
    673    687     1
    673    679     1
    673    680     1
    674    676     1
    674    678     1
    675    683     1
    675    684     1
    676    681     1
    676    679     1
    676    680     1
    676    738     1
    677    703     1
    677    738     1
    678    681     1
    678    679     1
    678    680     1
    678    738     1
    679    682     1
    679    713     1
    680    682     1
    680    713     1
    681    696     1
    682    703     1
    683    688     1
    683    686     1
    683    687     1
    683    738     1
    684    688     1
    684    686     1
    684    687     1
    684    738     1
    685    727     1
    685    738     1
    686    689     1
    686    737     1
    687    689     1
    687    737     1
    688    720     1
    689    727     1
    690    697     1
    690    712     1
    690    707     1
    690    698     1
    691    696     1
    691    702     1
    691    704     1
    691    705     1
    692    693     1
    692    711     1
    692    710     1
    692    706     1
    692    704     1
    692    705     1
    692    695     1
    693    698     1
    693    703     1
    693    712     1
    694    709     1
    694    702     1
    694    710     1
    695    703     1
    695    697     1
    696    699     1
    696    708     1
    696    698     1
    696    703     1
    696    700     1
    696    697     1
    697    713     1
    697    702     1
    697    711     1
    697    710     1
    698    709     1
    698    713     1
    700    710     1
    701    710     1
    704    707     1
    704    708     1
    705    707     1
    705    708     1
    708    709     1
    708    710     1
    710    712     1
    714    721     1
    714    736     1
    714    731     1
    714    722     1
    715    720     1
    715    726     1
    715    728     1
    715    729     1
    716    717     1
    716    735     1
    716    734     1
    716    730     1
    716    728     1
    716    729     1
    716    719     1
    717    722     1
    717    727     1
    717    736     1
    718    733     1
    718    726     1
    718    734     1
    719    727     1
    719    721     1
    720    723     1
    720    732     1
    720    722     1
    720    727     1
    720    724     1
    720    721     1
    721    737     1
    721    726     1
    721    735     1
    721    734     1
    722    733     1
    722    737     1
    724    734     1
    725    734     1
    728    731     1
    728    732     1
    729    731     1
    729    732     1
    732    733     1
    732    734     1
    734    736     1

[ angles ]
;    ai     aj     ak funct         c0         c1         c2         c3
      1      2      3     1   114.2100488 537.225600
      1      7     13     1   114.2100488 537.225600
      1      8     15     1   114.2100488 537.225600
      2      1      7     1   109.6600471 523.836800
      2      1      8     1   109.6600471 523.836800
      2      3      4     1   114.2100488 537.225600
      3      4      5     1   109.6600471 523.836800
      3      4      6     1   109.6600471 523.836800
      4      5     11     1   114.2100488 537.225600
      4      6      9     1   114.2100488 537.225600
      5      4      6     1   109.6600471 523.836800
      5     11     12     1   111.0400475 529.694400
      6      9     10     1   111.0400475 529.694400
      7      1      8     1   109.6600471 523.836800
      7     13     14     1   111.0400475 529.694400
      8     15     16     1   111.0400475 529.694400
      9     10     18     1   123.2000528 564.003200
      9     10     52     1   115.1800491 558.982400
     10     52     51     1   120.6900519 530.531200
     11     12     17     1   123.2000528 564.003200
     11     12     78     1   115.1800491 558.982400
     12     78     77     1   120.6900519 530.531200
     13     14     20     1   123.2000528 564.003200
     13     14    104     1   115.1800491 558.982400
     14    104    103     1   120.6900519 530.531200
     15     16     19     1   123.2000528 564.003200
     15     16    130     1   115.1800491 558.982400
     16    130    129     1   120.6900519 530.531200
     17     12     78     1   123.0500530 620.905600
     18     10     52     1   123.0500530 620.905600
     19     16    130     1   123.0500530 620.905600
     20     14    104     1   123.0500530 620.905600
     43     44     46     1   114.2100488 537.225600
     43     45     48     1   114.2100488 537.225600
     43     50     51     1   114.2100488 537.225600
     44     43     45     1   109.6600471 523.836800
     44     43     50     1   109.6600471 523.836800
     44     46     47     1   111.0400475 529.694400
     45     43     50     1   109.6600471 523.836800
     45     48     49     1   111.0400475 529.694400
     46     47    147     1   115.1800491 558.982400
     46     47     53     1   123.2000528 564.003200
     47    147    149     1   120.6900519 530.531200
     48     49     54     1   123.2000528 564.003200
     48     49    221     1   115.1800491 558.982400
     49    221    223     1   120.6900519 530.531200
     50     51     52     1   111.6100477 551.451200
     53     47    147     1   123.0500530 620.905600
     54     49    221     1   123.0500530 620.905600
     69     70     72     1   114.2100488 537.225600
     69     71     74     1   114.2100488 537.225600
     69     76     77     1   114.2100488 537.225600
     70     69     71     1   109.6600471 523.836800
     70     69     76     1   109.6600471 523.836800
     70     72     73     1   111.0400475 529.694400
     71     69     76     1   109.6600471 523.836800
     71     74     75     1   111.0400475 529.694400
     72     73    295     1   115.1800491 558.982400
     72     73     79     1   123.2000528 564.003200
     73    295    297     1   120.6900519 530.531200
     74     75     80     1   123.2000528 564.003200
     74     75    369     1   115.1800491 558.982400
     75    369    371     1   120.6900519 530.531200
     76     77     78     1   111.6100477 551.451200
     79     73    295     1   123.0500530 620.905600
     80     75    369     1   123.0500530 620.905600
     95     96     98     1   114.2100488 537.225600
     95     97    100     1   114.2100488 537.225600
     95    102    103     1   114.2100488 537.225600
     96     95     97     1   109.6600471 523.836800
     96     95    102     1   109.6600471 523.836800
     96     98     99     1   111.0400475 529.694400
     97     95    102     1   109.6600471 523.836800
     97    100    101     1   111.0400475 529.694400
     98     99    443     1   115.1800491 558.982400
     98     99    105     1   123.2000528 564.003200
     99    443    445     1   120.6900519 530.531200
    100    101    106     1   123.2000528 564.003200
    100    101    517     1   115.1800491 558.982400
    101    517    519     1   120.6900519 530.531200
    102    103    104     1   111.6100477 551.451200
    105     99    443     1   123.0500530 620.905600
    106    101    517     1   123.0500530 620.905600
    121    122    124     1   114.2100488 537.225600
    121    123    126     1   114.2100488 537.225600
    121    128    129     1   114.2100488 537.225600
    122    121    123     1   109.6600471 523.836800
    122    121    128     1   109.6600471 523.836800
    122    124    125     1   111.0400475 529.694400
    123    121    128     1   109.6600471 523.836800
    123    126    127     1   111.0400475 529.694400
    124    125    591     1   115.1800491 558.982400
    124    125    131     1   123.2000528 564.003200
    125    591    593     1   120.6900519 530.531200
    126    127    665     1   115.1800491 558.982400
    126    127    132     1   123.2000528 564.003200
    127    665    667     1   120.6900519 530.531200
    128    129    130     1   111.6100477 551.451200
    131    125    591     1   123.0500530 620.905600
    132    127    665     1   123.0500530 620.905600
    147    149    151     1   111.6100477 551.451200
    149    151    155     1   114.2100488 537.225600
    151    155    156     1   109.6600471 523.836800
    151    155    157     1   109.6600471 523.836800
    155    156    167     1   114.2100488 537.225600
    155    157    159     1   114.2100488 537.225600
    156    155    157     1   109.6600471 523.836800
    156    167    170     1   111.0400475 529.694400
    157    159    163     1   111.0400475 529.694400
    159    163    164     1   123.2000528 564.003200
    159    163    195     1   112.2600482 538.062400
    163    195    176     1   118.5150508 540.957728
    164    163    195     1   118.8300510 581.576000
    167    170    171     1   123.2000528 564.003200
    167    170    219     1   112.2600482 538.062400
    170    219    200     1   118.5150508 540.957728
    171    170    219     1   118.8300510 581.576000
    172    173    175     1   111.5100476 526.347200
    172    173    193     1   110.1900474 564.840000
    172    183    188     1   110.1900474 564.840000
    172    190    177     1   112.4800480 524.673600
    173    172    183     1   111.5100476 526.347200
    173    172    190     1   107.9700462 569.024000
    173    175    176     1   111.5100476 526.347200
    173    175    182     1   110.1900474 564.840000
    175    173    193     1   110.1900474 564.840000
    175    176    177     1   111.5100476 526.347200
    175    176    195     1   111.0400475 552.288000
    176    175    182     1   110.1900474 564.840000
    176    177    181     1   110.1900474 564.840000
    176    177    190     1   107.9700462 569.024000
    177    176    195     1   111.0400475 552.288000
    181    177    190     1   109.3800466 607.516800
    183    172    190     1   107.9700462 569.024000
    196    197    199     1   111.5100476 526.347200
    196    197    217     1   110.1900474 564.840000
    196    207    212     1   110.1900474 564.840000
    196    214    201     1   112.4800480 524.673600
    197    196    207     1   111.5100476 526.347200
    197    196    214     1   107.9700462 569.024000
    197    199    200     1   111.5100476 526.347200
    197    199    206     1   110.1900474 564.840000
    199    197    217     1   110.1900474 564.840000
    199    200    201     1   111.5100476 526.347200
    199    200    219     1   111.0400475 552.288000
    200    199    206     1   110.1900474 564.840000
    200    201    205     1   110.1900474 564.840000
    200    201    214     1   107.9700462 569.024000
    201    200    219     1   111.0400475 552.288000
    205    201    214     1   109.3800466 607.516800
    207    196    214     1   107.9700462 569.024000
    221    223    225     1   111.6100477 551.451200
    223    225    229     1   114.2100488 537.225600
    225    229    230     1   109.6600471 523.836800
    225    229    231     1   109.6600471 523.836800
    229    230    241     1   114.2100488 537.225600
    229    231    233     1   114.2100488 537.225600
    230    241    244     1   111.0400475 529.694400
    230    229    231     1   109.6600471 523.836800
    231    233    237     1   111.0400475 529.694400
    233    237    238     1   123.2000528 564.003200
    233    237    269     1   112.2600482 538.062400
    237    269    250     1   118.5150508 540.957728
    238    237    269     1   118.8300510 581.576000
    241    244    245     1   123.2000528 564.003200
    241    244    293     1   112.2600482 538.062400
    244    293    274     1   118.5150508 540.957728
    245    244    293     1   118.8300510 581.576000
    246    247    249     1   111.5100476 526.347200
    246    247    267     1   110.1900474 564.840000
    246    257    262     1   110.1900474 564.840000
    246    264    251     1   112.4800480 524.673600
    247    249    250     1   111.5100476 526.347200
    247    249    256     1   110.1900474 564.840000
    247    246    257     1   111.5100476 526.347200
    247    246    264     1   107.9700462 569.024000
    249    250    251     1   111.5100476 526.347200
    249    250    269     1   111.0400475 552.288000
    249    247    267     1   110.1900474 564.840000
    250    251    255     1   110.1900474 564.840000
    250    251    264     1   107.9700462 569.024000
    250    249    256     1   110.1900474 564.840000
    251    250    269     1   111.0400475 552.288000
    255    251    264     1   109.3800466 607.516800
    257    246    264     1   107.9700462 569.024000
    270    271    273     1   111.5100476 526.347200
    270    271    291     1   110.1900474 564.840000
    270    281    286     1   110.1900474 564.840000
    270    288    275     1   112.4800480 524.673600
    271    273    274     1   111.5100476 526.347200
    271    273    280     1   110.1900474 564.840000
    271    270    281     1   111.5100476 526.347200
    271    270    288     1   107.9700462 569.024000
    273    274    275     1   111.5100476 526.347200
    273    274    293     1   111.0400475 552.288000
    273    271    291     1   110.1900474 564.840000
    274    275    279     1   110.1900474 564.840000
    274    275    288     1   107.9700462 569.024000
    274    273    280     1   110.1900474 564.840000
    275    274    293     1   111.0400475 552.288000
    279    275    288     1   109.3800466 607.516800
    281    270    288     1   107.9700462 569.024000
    295    297    299     1   111.6100477 551.451200
    297    299    303     1   114.2100488 537.225600
    299    303    304     1   109.6600471 523.836800
    299    303    305     1   109.6600471 523.836800
    303    304    315     1   114.2100488 537.225600
    303    305    307     1   114.2100488 537.225600
    304    303    305     1   109.6600471 523.836800
    304    315    318     1   111.0400475 529.694400
    305    307    311     1   111.0400475 529.694400
    307    311    312     1   123.2000528 564.003200
    307    311    343     1   112.2600482 538.062400
    311    343    324     1   118.5150508 540.957728
    312    311    343     1   118.8300510 581.576000
    315    318    319     1   123.2000528 564.003200
    315    318    367     1   112.2600482 538.062400
    318    367    348     1   118.5150508 540.957728
    319    318    367     1   118.8300510 581.576000
    320    321    323     1   111.5100476 526.347200
    320    321    341     1   110.1900474 564.840000
    320    331    336     1   110.1900474 564.840000
    320    338    325     1   112.4800480 524.673600
    321    320    331     1   111.5100476 526.347200
    321    320    338     1   107.9700462 569.024000
    321    323    324     1   111.5100476 526.347200
    321    323    330     1   110.1900474 564.840000
    323    321    341     1   110.1900474 564.840000
    323    324    325     1   111.5100476 526.347200
    323    324    343     1   111.0400475 552.288000
    324    323    330     1   110.1900474 564.840000
    324    325    329     1   110.1900474 564.840000
    324    325    338     1   107.9700462 569.024000
    325    324    343     1   111.0400475 552.288000
    329    325    338     1   109.3800466 607.516800
    331    320    338     1   107.9700462 569.024000
    344    345    347     1   111.5100476 526.347200
    344    345    365     1   110.1900474 564.840000
    344    355    360     1   110.1900474 564.840000
    344    362    349     1   112.4800480 524.673600
    345    344    355     1   111.5100476 526.347200
    345    344    362     1   107.9700462 569.024000
    345    347    348     1   111.5100476 526.347200
    345    347    354     1   110.1900474 564.840000
    347    345    365     1   110.1900474 564.840000
    347    348    349     1   111.5100476 526.347200
    347    348    367     1   111.0400475 552.288000
    348    347    354     1   110.1900474 564.840000
    348    349    353     1   110.1900474 564.840000
    348    349    362     1   107.9700462 569.024000
    349    348    367     1   111.0400475 552.288000
    353    349    362     1   109.3800466 607.516800
    355    344    362     1   107.9700462 569.024000
    369    371    373     1   111.6100477 551.451200
    371    373    377     1   114.2100488 537.225600
    373    377    378     1   109.6600471 523.836800
    373    377    379     1   109.6600471 523.836800
    377    378    389     1   114.2100488 537.225600
    377    379    381     1   114.2100488 537.225600
    378    389    392     1   111.0400475 529.694400
    378    377    379     1   109.6600471 523.836800
    379    381    385     1   111.0400475 529.694400
    381    385    386     1   123.2000528 564.003200
    381    385    417     1   112.2600482 538.062400
    385    417    398     1   118.5150508 540.957728
    386    385    417     1   118.8300510 581.576000
    389    392    393     1   123.2000528 564.003200
    389    392    441     1   112.2600482 538.062400
    392    441    422     1   118.5150508 540.957728
    393    392    441     1   118.8300510 581.576000
    394    395    397     1   111.5100476 526.347200
    394    395    415     1   110.1900474 564.840000
    394    405    410     1   110.1900474 564.840000
    394    412    399     1   112.4800480 524.673600
    395    397    398     1   111.5100476 526.347200
    395    397    404     1   110.1900474 564.840000
    395    394    405     1   111.5100476 526.347200
    395    394    412     1   107.9700462 569.024000
    397    398    399     1   111.5100476 526.347200
    397    398    417     1   111.0400475 552.288000
    397    395    415     1   110.1900474 564.840000
    398    399    403     1   110.1900474 564.840000
    398    399    412     1   107.9700462 569.024000
    398    397    404     1   110.1900474 564.840000
    399    398    417     1   111.0400475 552.288000
    403    399    412     1   109.3800466 607.516800
    405    394    412     1   107.9700462 569.024000
    418    419    421     1   111.5100476 526.347200
    418    419    439     1   110.1900474 564.840000
    418    429    434     1   110.1900474 564.840000
    418    436    423     1   112.4800480 524.673600
    419    421    422     1   111.5100476 526.347200
    419    421    428     1   110.1900474 564.840000
    419    418    429     1   111.5100476 526.347200
    419    418    436     1   107.9700462 569.024000
    421    422    423     1   111.5100476 526.347200
    421    422    441     1   111.0400475 552.288000
    421    419    439     1   110.1900474 564.840000
    422    423    427     1   110.1900474 564.840000
    422    423    436     1   107.9700462 569.024000
    422    421    428     1   110.1900474 564.840000
    423    422    441     1   111.0400475 552.288000
    427    423    436     1   109.3800466 607.516800
    429    418    436     1   107.9700462 569.024000
    443    445    447     1   111.6100477 551.451200
    445    447    451     1   114.2100488 537.225600
    447    451    452     1   109.6600471 523.836800
    447    451    453     1   109.6600471 523.836800
    451    452    463     1   114.2100488 537.225600
    451    453    455     1   114.2100488 537.225600
    452    451    453     1   109.6600471 523.836800
    452    463    466     1   111.0400475 529.694400
    453    455    459     1   111.0400475 529.694400
    455    459    460     1   123.2000528 564.003200
    455    459    491     1   112.2600482 538.062400
    459    491    472     1   118.5150508 540.957728
    460    459    491     1   118.8300510 581.576000
    463    466    467     1   123.2000528 564.003200
    463    466    515     1   112.2600482 538.062400
    466    515    496     1   118.5150508 540.957728
    467    466    515     1   118.8300510 581.576000
    468    469    471     1   111.5100476 526.347200
    468    469    489     1   110.1900474 564.840000
    468    479    484     1   110.1900474 564.840000
    468    486    473     1   112.4800480 524.673600
    469    468    479     1   111.5100476 526.347200
    469    468    486     1   107.9700462 569.024000
    469    471    472     1   111.5100476 526.347200
    469    471    478     1   110.1900474 564.840000
    471    469    489     1   110.1900474 564.840000
    471    472    473     1   111.5100476 526.347200
    471    472    491     1   111.0400475 552.288000
    472    471    478     1   110.1900474 564.840000
    472    473    477     1   110.1900474 564.840000
    472    473    486     1   107.9700462 569.024000
    473    472    491     1   111.0400475 552.288000
    477    473    486     1   109.3800466 607.516800
    479    468    486     1   107.9700462 569.024000
    492    493    495     1   111.5100476 526.347200
    492    493    513     1   110.1900474 564.840000
    492    503    508     1   110.1900474 564.840000
    492    510    497     1   112.4800480 524.673600
    493    492    503     1   111.5100476 526.347200
    493    492    510     1   107.9700462 569.024000
    493    495    496     1   111.5100476 526.347200
    493    495    502     1   110.1900474 564.840000
    495    493    513     1   110.1900474 564.840000
    495    496    497     1   111.5100476 526.347200
    495    496    515     1   111.0400475 552.288000
    496    495    502     1   110.1900474 564.840000
    496    497    501     1   110.1900474 564.840000
    496    497    510     1   107.9700462 569.024000
    497    496    515     1   111.0400475 552.288000
    501    497    510     1   109.3800466 607.516800
    503    492    510     1   107.9700462 569.024000
    517    519    521     1   111.6100477 551.451200
    519    521    525     1   114.2100488 537.225600
    521    525    526     1   109.6600471 523.836800
    521    525    527     1   109.6600471 523.836800
    525    526    537     1   114.2100488 537.225600
    525    527    529     1   114.2100488 537.225600
    526    537    540     1   111.0400475 529.694400
    526    525    527     1   109.6600471 523.836800
    527    529    533     1   111.0400475 529.694400
    529    533    534     1   123.2000528 564.003200
    529    533    565     1   112.2600482 538.062400
    533    565    546     1   118.5150508 540.957728
    534    533    565     1   118.8300510 581.576000
    537    540    541     1   123.2000528 564.003200
    537    540    589     1   112.2600482 538.062400
    540    589    570     1   118.5150508 540.957728
    541    540    589     1   118.8300510 581.576000
    542    543    545     1   111.5100476 526.347200
    542    543    563     1   110.1900474 564.840000
    542    553    558     1   110.1900474 564.840000
    542    560    547     1   112.4800480 524.673600
    543    545    546     1   111.5100476 526.347200
    543    545    552     1   110.1900474 564.840000
    543    542    553     1   111.5100476 526.347200
    543    542    560     1   107.9700462 569.024000
    545    546    547     1   111.5100476 526.347200
    545    546    565     1   111.0400475 552.288000
    545    543    563     1   110.1900474 564.840000
    546    547    551     1   110.1900474 564.840000
    546    547    560     1   107.9700462 569.024000
    546    545    552     1   110.1900474 564.840000
    547    546    565     1   111.0400475 552.288000
    551    547    560     1   109.3800466 607.516800
    553    542    560     1   107.9700462 569.024000
    566    567    569     1   111.5100476 526.347200
    566    567    587     1   110.1900474 564.840000
    566    577    582     1   110.1900474 564.840000
    566    584    571     1   112.4800480 524.673600
    567    569    570     1   111.5100476 526.347200
    567    569    576     1   110.1900474 564.840000
    567    566    577     1   111.5100476 526.347200
    567    566    584     1   107.9700462 569.024000
    569    570    571     1   111.5100476 526.347200
    569    570    589     1   111.0400475 552.288000
    569    567    587     1   110.1900474 564.840000
    570    571    575     1   110.1900474 564.840000
    570    571    584     1   107.9700462 569.024000
    570    569    576     1   110.1900474 564.840000
    571    570    589     1   111.0400475 552.288000
    575    571    584     1   109.3800466 607.516800
    577    566    584     1   107.9700462 569.024000
    591    593    595     1   111.6100477 551.451200
    593    595    599     1   114.2100488 537.225600
    595    599    600     1   109.6600471 523.836800
    595    599    601     1   109.6600471 523.836800
    599    600    611     1   114.2100488 537.225600
    599    601    603     1   114.2100488 537.225600
    600    599    601     1   109.6600471 523.836800
    600    611    614     1   111.0400475 529.694400
    601    603    607     1   111.0400475 529.694400
    603    607    608     1   123.2000528 564.003200
    603    607    639     1   112.2600482 538.062400
    607    639    620     1   118.5150508 540.957728
    608    607    639     1   118.8300510 581.576000
    611    614    615     1   123.2000528 564.003200
    611    614    663     1   112.2600482 538.062400
    614    663    644     1   118.5150508 540.957728
    615    614    663     1   118.8300510 581.576000
    616    617    619     1   111.5100476 526.347200
    616    617    637     1   110.1900474 564.840000
    616    627    632     1   110.1900474 564.840000
    616    634    621     1   112.4800480 524.673600
    617    616    627     1   111.5100476 526.347200
    617    616    634     1   107.9700462 569.024000
    617    619    620     1   111.5100476 526.347200
    617    619    626     1   110.1900474 564.840000
    619    617    637     1   110.1900474 564.840000
    619    620    621     1   111.5100476 526.347200
    619    620    639     1   111.0400475 552.288000
    620    619    626     1   110.1900474 564.840000
    620    621    625     1   110.1900474 564.840000
    620    621    634     1   107.9700462 569.024000
    621    620    639     1   111.0400475 552.288000
    625    621    634     1   109.3800466 607.516800
    627    616    634     1   107.9700462 569.024000
    640    641    643     1   111.5100476 526.347200
    640    641    661     1   110.1900474 564.840000
    640    651    656     1   110.1900474 564.840000
    640    658    645     1   112.4800480 524.673600
    641    640    651     1   111.5100476 526.347200
    641    640    658     1   107.9700462 569.024000
    641    643    644     1   111.5100476 526.347200
    641    643    650     1   110.1900474 564.840000
    643    641    661     1   110.1900474 564.840000
    643    644    645     1   111.5100476 526.347200
    643    644    663     1   111.0400475 552.288000
    644    643    650     1   110.1900474 564.840000
    644    645    649     1   110.1900474 564.840000
    644    645    658     1   107.9700462 569.024000
    645    644    663     1   111.0400475 552.288000
    649    645    658     1   109.3800466 607.516800
    651    640    658     1   107.9700462 569.024000
    665    667    669     1   111.6100477 551.451200
    667    669    673     1   114.2100488 537.225600
    669    673    674     1   109.6600471 523.836800
    669    673    675     1   109.6600471 523.836800
    673    674    685     1   114.2100488 537.225600
    673    675    677     1   114.2100488 537.225600
    674    685    688     1   111.0400475 529.694400
    674    673    675     1   109.6600471 523.836800
    675    677    681     1   111.0400475 529.694400
    677    681    682     1   123.2000528 564.003200
    677    681    713     1   112.2600482 538.062400
    681    713    694     1   118.5150508 540.957728
    682    681    713     1   118.8300510 581.576000
    685    688    689     1   123.2000528 564.003200
    685    688    737     1   112.2600482 538.062400
    688    737    718     1   118.5150508 540.957728
    689    688    737     1   118.8300510 581.576000
    690    691    693     1   111.5100476 526.347200
    690    691    711     1   110.1900474 564.840000
    690    701    706     1   110.1900474 564.840000
    690    708    695     1   112.4800480 524.673600
    691    693    694     1   111.5100476 526.347200
    691    693    700     1   110.1900474 564.840000
    691    690    701     1   111.5100476 526.347200
    691    690    708     1   107.9700462 569.024000
    693    694    695     1   111.5100476 526.347200
    693    694    713     1   111.0400475 552.288000
    693    691    711     1   110.1900474 564.840000
    694    695    699     1   110.1900474 564.840000
    694    695    708     1   107.9700462 569.024000
    694    693    700     1   110.1900474 564.840000
    695    694    713     1   111.0400475 552.288000
    699    695    708     1   109.3800466 607.516800
    701    690    708     1   107.9700462 569.024000
    714    715    717     1   111.5100476 526.347200
    714    715    735     1   110.1900474 564.840000
    714    725    730     1   110.1900474 564.840000
    714    732    719     1   112.4800480 524.673600
    715    717    718     1   111.5100476 526.347200
    715    717    724     1   110.1900474 564.840000
    715    714    725     1   111.5100476 526.347200
    715    714    732     1   107.9700462 569.024000
    717    718    719     1   111.5100476 526.347200
    717    718    737     1   111.0400475 552.288000
    717    715    735     1   110.1900474 564.840000
    718    719    723     1   110.1900474 564.840000
    718    719    732     1   107.9700462 569.024000
    718    717    724     1   110.1900474 564.840000
    719    718    737     1   111.0400475 552.288000
    723    719    732     1   109.3800466 607.516800
    725    714    732     1   107.9700462 569.024000
      1      2     21     1   108.0100461 406.684800
      1      2     22     1   108.0100461 406.684800
      1      7     29     1   108.0100461 406.684800
      1      7     30     1   108.0100461 406.684800
      1      8     31     1   108.0100461 406.684800
      1      8     32     1   108.0100461 406.684800
      2      1     41     1   110.1100470 384.091200
      2      3     23     1   110.5600475 386.601600
      2      3     24     1   110.5600475 386.601600
      3      2     21     1   110.5600475 386.601600
      3      2     22     1   110.5600475 386.601600
      3      4     42     1   110.1100470 384.091200
      4      3     23     1   108.0100461 406.684800
      4      3     24     1   108.0100461 406.684800
      4      5     25     1   108.0100461 406.684800
      4      5     26     1   108.0100461 406.684800
      4      6     27     1   108.0100461 406.684800
      4      6     28     1   108.0100461 406.684800
      5      4     42     1   110.1100470 384.091200
      5     11     35     1   109.8000471 387.438400
      5     11     36     1   109.8000471 387.438400
      6      4     42     1   110.1100470 384.091200
      6      9     33     1   109.8000471 387.438400
      6      9     34     1   109.8000471 387.438400
      7      1     41     1   110.1100470 384.091200
      7     13     37     1   109.8000471 387.438400
      7     13     38     1   109.8000471 387.438400
      8      1     41     1   110.1100470 384.091200
      8     15     39     1   109.8000471 387.438400
      8     15     40     1   109.8000471 387.438400
      9      6     27     1   110.5600475 386.601600
      9      6     28     1   110.5600475 386.601600
     10      9     33     1   108.7700466 392.459200
     10      9     34     1   108.7700466 392.459200
     10     52     67     1   117.5500507 404.174400
     11      5     25     1   110.5600475 386.601600
     11      5     26     1   110.5600475 386.601600
     12     11     35     1   108.7700466 392.459200
     12     11     36     1   108.7700466 392.459200
     12     78     93     1   117.5500507 404.174400
     13      7     29     1   110.5600475 386.601600
     13      7     30     1   110.5600475 386.601600
     14     13     37     1   108.7700466 392.459200
     14     13     38     1   108.7700466 392.459200
     14    104    119     1   117.5500507 404.174400
     15      8     31     1   110.5600475 386.601600
     15      8     32     1   110.5600475 386.601600
     16     15     39     1   108.7700466 392.459200
     16     15     40     1   108.7700466 392.459200
     16    130    145     1   117.5500507 404.174400
     21      2     22     1   109.7500473 328.025600
     23      3     24     1   109.7500473 328.025600
     25      5     26     1   109.7500473 328.025600
     27      6     28     1   109.7500473 328.025600
     29      7     30     1   109.7500473 328.025600
     31      8     32     1   109.7500473 328.025600
     33      9     34     1   107.5800459 329.699200
     35     11     36     1   107.5800459 329.699200
     37     13     38     1   107.5800459 329.699200
     39     15     40     1   107.5800459 329.699200
     43     44     55     1   108.0100461 406.684800
     43     44     56     1   108.0100461 406.684800
     43     45     57     1   108.0100461 406.684800
     43     45     58     1   108.0100461 406.684800
     43     50     63     1   108.0100461 406.684800
     43     50     64     1   108.0100461 406.684800
     44     43     68     1   110.1100470 384.091200
     44     46     59     1   109.8000471 387.438400
     44     46     60     1   109.8000471 387.438400
     45     43     68     1   110.1100470 384.091200
     45     48     61     1   109.8000471 387.438400
     45     48     62     1   109.8000471 387.438400
     46     44     55     1   110.5600475 386.601600
     46     44     56     1   110.5600475 386.601600
     47     46     59     1   108.7700466 392.459200
     47     46     60     1   108.7700466 392.459200
     47    147    148     1   117.5500507 404.174400
     48     45     57     1   110.5600475 386.601600
     48     45     58     1   110.5600475 386.601600
     49     48     61     1   108.7700466 392.459200
     49     48     62     1   108.7700466 392.459200
     49    221    222     1   117.5500507 404.174400
     50     43     68     1   110.1100470 384.091200
     50     51     65     1   109.5600471 388.275200
     50     51     66     1   109.5600471 388.275200
     51     50     63     1   110.5600475 386.601600
     51     50     64     1   110.5600475 386.601600
     51     52     67     1   117.6800502 383.254400
     52     51     65     1   108.8800464 416.726400
     52     51     66     1   108.8800464 416.726400
     55     44     56     1   109.7500473 328.025600
     57     45     58     1   109.7500473 328.025600
     59     46     60     1   107.5800459 329.699200
     61     48     62     1   107.5800459 329.699200
     63     50     64     1   109.7500473 328.025600
     65     51     66     1   108.4600466 328.025600
     69     70     81     1   108.0100461 406.684800
     69     70     82     1   108.0100461 406.684800
     69     71     83     1   108.0100461 406.684800
     69     71     84     1   108.0100461 406.684800
     69     76     89     1   108.0100461 406.684800
     69     76     90     1   108.0100461 406.684800
     70     69     94     1   110.1100470 384.091200
     70     72     85     1   109.8000471 387.438400
     70     72     86     1   109.8000471 387.438400
     71     69     94     1   110.1100470 384.091200
     71     74     87     1   109.8000471 387.438400
     71     74     88     1   109.8000471 387.438400
     72     70     81     1   110.5600475 386.601600
     72     70     82     1   110.5600475 386.601600
     73     72     85     1   108.7700466 392.459200
     73     72     86     1   108.7700466 392.459200
     73    295    296     1   117.5500507 404.174400
     74     71     83     1   110.5600475 386.601600
     74     71     84     1   110.5600475 386.601600
     75     74     87     1   108.7700466 392.459200
     75     74     88     1   108.7700466 392.459200
     75    369    370     1   117.5500507 404.174400
     76     69     94     1   110.1100470 384.091200
     76     77     91     1   109.5600471 388.275200
     76     77     92     1   109.5600471 388.275200
     77     76     89     1   110.5600475 386.601600
     77     76     90     1   110.5600475 386.601600
     77     78     93     1   117.6800502 383.254400
     78     77     91     1   108.8800464 416.726400
     78     77     92     1   108.8800464 416.726400
     81     70     82     1   109.7500473 328.025600
     83     71     84     1   109.7500473 328.025600
     85     72     86     1   107.5800459 329.699200
     87     74     88     1   107.5800459 329.699200
     89     76     90     1   109.7500473 328.025600
     91     77     92     1   108.4600466 328.025600
     95     96    107     1   108.0100461 406.684800
     95     96    108     1   108.0100461 406.684800
     95     97    109     1   108.0100461 406.684800
     95     97    110     1   108.0100461 406.684800
     95    102    115     1   108.0100461 406.684800
     95    102    116     1   108.0100461 406.684800
     96     95    120     1   110.1100470 384.091200
     96     98    111     1   109.8000471 387.438400
     96     98    112     1   109.8000471 387.438400
     97     95    120     1   110.1100470 384.091200
     97    100    113     1   109.8000471 387.438400
     97    100    114     1   109.8000471 387.438400
     98     96    107     1   110.5600475 386.601600
     98     96    108     1   110.5600475 386.601600
     99     98    111     1   108.7700466 392.459200
     99     98    112     1   108.7700466 392.459200
     99    443    444     1   117.5500507 404.174400
    100     97    109     1   110.5600475 386.601600
    100     97    110     1   110.5600475 386.601600
    101    100    113     1   108.7700466 392.459200
    101    100    114     1   108.7700466 392.459200
    101    517    518     1   117.5500507 404.174400
    102     95    120     1   110.1100470 384.091200
    102    103    117     1   109.5600471 388.275200
    102    103    118     1   109.5600471 388.275200
    103    102    115     1   110.5600475 386.601600
    103    102    116     1   110.5600475 386.601600
    103    104    119     1   117.6800502 383.254400
    104    103    117     1   108.8800464 416.726400
    104    103    118     1   108.8800464 416.726400
    107     96    108     1   109.7500473 328.025600
    109     97    110     1   109.7500473 328.025600
    111     98    112     1   107.5800459 329.699200
    113    100    114     1   107.5800459 329.699200
    115    102    116     1   109.7500473 328.025600
    117    103    118     1   108.4600466 328.025600
    121    122    133     1   108.0100461 406.684800
    121    122    134     1   108.0100461 406.684800
    121    123    135     1   108.0100461 406.684800
    121    123    136     1   108.0100461 406.684800
    121    128    141     1   108.0100461 406.684800
    121    128    142     1   108.0100461 406.684800
    122    121    146     1   110.1100470 384.091200
    122    124    137     1   109.8000471 387.438400
    122    124    138     1   109.8000471 387.438400
    123    121    146     1   110.1100470 384.091200
    123    126    139     1   109.8000471 387.438400
    123    126    140     1   109.8000471 387.438400
    124    122    133     1   110.5600475 386.601600
    124    122    134     1   110.5600475 386.601600
    125    124    137     1   108.7700466 392.459200
    125    124    138     1   108.7700466 392.459200
    125    591    592     1   117.5500507 404.174400
    126    123    135     1   110.5600475 386.601600
    126    123    136     1   110.5600475 386.601600
    127    126    139     1   108.7700466 392.459200
    127    126    140     1   108.7700466 392.459200
    127    665    666     1   117.5500507 404.174400
    128    121    146     1   110.1100470 384.091200
    128    129    143     1   109.5600471 388.275200
    128    129    144     1   109.5600471 388.275200
    129    128    141     1   110.5600475 386.601600
    129    128    142     1   110.5600475 386.601600
    129    130    145     1   117.6800502 383.254400
    130    129    143     1   108.8800464 416.726400
    130    129    144     1   108.8800464 416.726400
    133    122    134     1   109.7500473 328.025600
    135    123    136     1   109.7500473 328.025600
    137    124    138     1   107.5800459 329.699200
    139    126    140     1   107.5800459 329.699200
    141    128    142     1   109.7500473 328.025600
    143    129    144     1   108.4600466 328.025600
    147    149    150     1   108.8800464 416.726400
    147    149    152     1   108.8800464 416.726400
    148    147    149     1   117.6800502 383.254400
    149    151    153     1   109.5600471 388.275200
    149    151    154     1   109.5600471 388.275200
    150    149    151     1   109.5600471 388.275200
    150    149    152     1   108.4600466 328.025600
    151    149    152     1   109.5600471 388.275200
    151    155    220     1   110.1100470 384.091200
    153    151    155     1   107.9000462 406.684800
    153    151    154     1   108.4600466 328.025600
    154    151    155     1   107.9000462 406.684800
    155    156    165     1   107.9000462 406.684800
    155    156    166     1   107.9000462 406.684800
    155    157    158     1   107.9000462 406.684800
    155    157    160     1   107.9000462 406.684800
    156    155    220     1   110.1100470 384.091200
    156    167    168     1   109.8000471 387.438400
    156    167    169     1   109.8000471 387.438400
    157    155    220     1   110.1100470 384.091200
    157    159    161     1   109.8000471 387.438400
    157    159    162     1   109.8000471 387.438400
    158    157    159     1   109.5600471 388.275200
    158    157    160     1   108.4600466 328.025600
    159    157    160     1   109.5600471 388.275200
    161    159    163     1   108.7700466 392.459200
    161    159    162     1   107.5800459 329.699200
    162    159    163     1   108.7700466 392.459200
    163    195    185     1   119.3800509 410.868800
    165    156    167     1   109.5600471 388.275200
    165    156    166     1   108.4600466 328.025600
    166    156    167     1   109.5600471 388.275200
    168    167    170     1   108.7700466 392.459200
    168    167    169     1   107.5800459 329.699200
    169    167    170     1   108.7700466 392.459200
    170    219    209     1   119.3800509 410.868800
    172    173    192     1   109.5600471 388.275200
    172    183    186     1   109.5600471 388.275200
    172    183    187     1   109.5600471 388.275200
    173    172    174     1   109.5600471 388.275200
    173    175    179     1   109.5600471 388.275200
    173    193    194     1   107.2600461 396.643200
    174    172    183     1   109.5600471 388.275200
    174    172    190     1   109.7800468 425.094400
    175    173    192     1   109.5600471 388.275200
    175    176    178     1   109.5600471 388.275200
    175    182    184     1   107.2600461 396.643200
    176    175    179     1   109.5600471 388.275200
    176    177    180     1   110.2200475 386.601600
    176    195    185     1   109.2900470 396.643200
    177    176    178     1   109.5600471 388.275200
    177    181    191     1   107.2600461 396.643200
    178    176    195     1   109.8800469 414.216000
    179    175    182     1   110.2600474 425.931200
    180    177    181     1   109.4300470 427.604800
    180    177    190     1   109.5800467 425.931200
    183    188    189     1   107.2600461 396.643200
    186    183    188     1   110.2600474 425.931200
    186    183    187     1   108.4600466 328.025600
    187    183    188     1   110.2600474 425.931200
    192    173    193     1   110.2600474 425.931200
    196    197    216     1   109.5600471 388.275200
    196    207    210     1   109.5600471 388.275200
    196    207    211     1   109.5600471 388.275200
    197    196    198     1   109.5600471 388.275200
    197    199    203     1   109.5600471 388.275200
    197    217    218     1   107.2600461 396.643200
    198    196    207     1   109.5600471 388.275200
    198    196    214     1   109.7800468 425.094400
    199    197    216     1   109.5600471 388.275200
    199    200    202     1   109.5600471 388.275200
    199    206    208     1   107.2600461 396.643200
    200    199    203     1   109.5600471 388.275200
    200    201    204     1   110.2200475 386.601600
    200    219    209     1   109.2900470 396.643200
    201    200    202     1   109.5600471 388.275200
    201    205    215     1   107.2600461 396.643200
    202    200    219     1   109.8800469 414.216000
    203    199    206     1   110.2600474 425.931200
    204    201    205     1   109.4300470 427.604800
    204    201    214     1   109.5800467 425.931200
    207    212    213     1   107.2600461 396.643200
    210    207    212     1   110.2600474 425.931200
    210    207    211     1   108.4600466 328.025600
    211    207    212     1   110.2600474 425.931200
    216    197    217     1   110.2600474 425.931200
    221    223    224     1   108.8800464 416.726400
    221    223    226     1   108.8800464 416.726400
    222    221    223     1   117.6800502 383.254400
    223    225    227     1   109.5600471 388.275200
    223    225    228     1   109.5600471 388.275200
    224    223    225     1   109.5600471 388.275200
    224    223    226     1   108.4600466 328.025600
    225    229    294     1   110.1100470 384.091200
    225    223    226     1   109.5600471 388.275200
    227    225    229     1   107.9000462 406.684800
    227    225    228     1   108.4600466 328.025600
    228    225    229     1   107.9000462 406.684800
    229    230    239     1   107.9000462 406.684800
    229    230    240     1   107.9000462 406.684800
    229    231    232     1   107.9000462 406.684800
    229    231    234     1   107.9000462 406.684800
    230    241    242     1   109.8000471 387.438400
    230    241    243     1   109.8000471 387.438400
    230    229    294     1   110.1100470 384.091200
    231    233    235     1   109.8000471 387.438400
    231    233    236     1   109.8000471 387.438400
    231    229    294     1   110.1100470 384.091200
    232    231    233     1   109.5600471 388.275200
    232    231    234     1   108.4600466 328.025600
    233    231    234     1   109.5600471 388.275200
    235    233    237     1   108.7700466 392.459200
    235    233    236     1   107.5800459 329.699200
    236    233    237     1   108.7700466 392.459200
    237    269    259     1   119.3800509 410.868800
    239    230    241     1   109.5600471 388.275200
    239    230    240     1   108.4600466 328.025600
    240    230    241     1   109.5600471 388.275200
    242    241    244     1   108.7700466 392.459200
    242    241    243     1   107.5800459 329.699200
    243    241    244     1   108.7700466 392.459200
    244    293    283     1   119.3800509 410.868800
    246    247    266     1   109.5600471 388.275200
    246    257    260     1   109.5600471 388.275200
    246    257    261     1   109.5600471 388.275200
    247    249    253     1   109.5600471 388.275200
    247    267    268     1   107.2600461 396.643200
    247    246    248     1   109.5600471 388.275200
    248    246    257     1   109.5600471 388.275200
    248    246    264     1   109.7800468 425.094400
    249    250    252     1   109.5600471 388.275200
    249    256    258     1   107.2600461 396.643200
    249    247    266     1   109.5600471 388.275200
    250    251    254     1   110.2200475 386.601600
    250    269    259     1   109.2900470 396.643200
    250    249    253     1   109.5600471 388.275200
    251    255    265     1   107.2600461 396.643200
    251    250    252     1   109.5600471 388.275200
    252    250    269     1   109.8800469 414.216000
    253    249    256     1   110.2600474 425.931200
    254    251    255     1   109.4300470 427.604800
    254    251    264     1   109.5800467 425.931200
    257    262    263     1   107.2600461 396.643200
    260    257    262     1   110.2600474 425.931200
    260    257    261     1   108.4600466 328.025600
    261    257    262     1   110.2600474 425.931200
    266    247    267     1   110.2600474 425.931200
    270    271    290     1   109.5600471 388.275200
    270    281    284     1   109.5600471 388.275200
    270    281    285     1   109.5600471 388.275200
    271    273    277     1   109.5600471 388.275200
    271    291    292     1   107.2600461 396.643200
    271    270    272     1   109.5600471 388.275200
    272    270    281     1   109.5600471 388.275200
    272    270    288     1   109.7800468 425.094400
    273    274    276     1   109.5600471 388.275200
    273    280    282     1   107.2600461 396.643200
    273    271    290     1   109.5600471 388.275200
    274    275    278     1   110.2200475 386.601600
    274    293    283     1   109.2900470 396.643200
    274    273    277     1   109.5600471 388.275200
    275    279    289     1   107.2600461 396.643200
    275    274    276     1   109.5600471 388.275200
    276    274    293     1   109.8800469 414.216000
    277    273    280     1   110.2600474 425.931200
    278    275    279     1   109.4300470 427.604800
    278    275    288     1   109.5800467 425.931200
    281    286    287     1   107.2600461 396.643200
    284    281    286     1   110.2600474 425.931200
    284    281    285     1   108.4600466 328.025600
    285    281    286     1   110.2600474 425.931200
    290    271    291     1   110.2600474 425.931200
    295    297    298     1   108.8800464 416.726400
    295    297    300     1   108.8800464 416.726400
    296    295    297     1   117.6800502 383.254400
    297    299    301     1   109.5600471 388.275200
    297    299    302     1   109.5600471 388.275200
    298    297    299     1   109.5600471 388.275200
    298    297    300     1   108.4600466 328.025600
    299    297    300     1   109.5600471 388.275200
    299    303    368     1   110.1100470 384.091200
    301    299    303     1   107.9000462 406.684800
    301    299    302     1   108.4600466 328.025600
    302    299    303     1   107.9000462 406.684800
    303    304    313     1   107.9000462 406.684800
    303    304    314     1   107.9000462 406.684800
    303    305    306     1   107.9000462 406.684800
    303    305    308     1   107.9000462 406.684800
    304    303    368     1   110.1100470 384.091200
    304    315    316     1   109.8000471 387.438400
    304    315    317     1   109.8000471 387.438400
    305    303    368     1   110.1100470 384.091200
    305    307    309     1   109.8000471 387.438400
    305    307    310     1   109.8000471 387.438400
    306    305    307     1   109.5600471 388.275200
    306    305    308     1   108.4600466 328.025600
    307    305    308     1   109.5600471 388.275200
    309    307    311     1   108.7700466 392.459200
    309    307    310     1   107.5800459 329.699200
    310    307    311     1   108.7700466 392.459200
    311    343    333     1   119.3800509 410.868800
    313    304    315     1   109.5600471 388.275200
    313    304    314     1   108.4600466 328.025600
    314    304    315     1   109.5600471 388.275200
    316    315    318     1   108.7700466 392.459200
    316    315    317     1   107.5800459 329.699200
    317    315    318     1   108.7700466 392.459200
    318    367    357     1   119.3800509 410.868800
    320    321    340     1   109.5600471 388.275200
    320    331    334     1   109.5600471 388.275200
    320    331    335     1   109.5600471 388.275200
    321    320    322     1   109.5600471 388.275200
    321    323    327     1   109.5600471 388.275200
    321    341    342     1   107.2600461 396.643200
    322    320    331     1   109.5600471 388.275200
    322    320    338     1   109.7800468 425.094400
    323    321    340     1   109.5600471 388.275200
    323    324    326     1   109.5600471 388.275200
    323    330    332     1   107.2600461 396.643200
    324    323    327     1   109.5600471 388.275200
    324    325    328     1   110.2200475 386.601600
    324    343    333     1   109.2900470 396.643200
    325    324    326     1   109.5600471 388.275200
    325    329    339     1   107.2600461 396.643200
    326    324    343     1   109.8800469 414.216000
    327    323    330     1   110.2600474 425.931200
    328    325    329     1   109.4300470 427.604800
    328    325    338     1   109.5800467 425.931200
    331    336    337     1   107.2600461 396.643200
    334    331    336     1   110.2600474 425.931200
    334    331    335     1   108.4600466 328.025600
    335    331    336     1   110.2600474 425.931200
    340    321    341     1   110.2600474 425.931200
    344    345    364     1   109.5600471 388.275200
    344    355    358     1   109.5600471 388.275200
    344    355    359     1   109.5600471 388.275200
    345    344    346     1   109.5600471 388.275200
    345    347    351     1   109.5600471 388.275200
    345    365    366     1   107.2600461 396.643200
    346    344    355     1   109.5600471 388.275200
    346    344    362     1   109.7800468 425.094400
    347    345    364     1   109.5600471 388.275200
    347    348    350     1   109.5600471 388.275200
    347    354    356     1   107.2600461 396.643200
    348    347    351     1   109.5600471 388.275200
    348    349    352     1   110.2200475 386.601600
    348    367    357     1   109.2900470 396.643200
    349    348    350     1   109.5600471 388.275200
    349    353    363     1   107.2600461 396.643200
    350    348    367     1   109.8800469 414.216000
    351    347    354     1   110.2600474 425.931200
    352    349    353     1   109.4300470 427.604800
    352    349    362     1   109.5800467 425.931200
    355    360    361     1   107.2600461 396.643200
    358    355    360     1   110.2600474 425.931200
    358    355    359     1   108.4600466 328.025600
    359    355    360     1   110.2600474 425.931200
    364    345    365     1   110.2600474 425.931200
    369    371    372     1   108.8800464 416.726400
    369    371    374     1   108.8800464 416.726400
    370    369    371     1   117.6800502 383.254400
    371    373    375     1   109.5600471 388.275200
    371    373    376     1   109.5600471 388.275200
    372    371    373     1   109.5600471 388.275200
    372    371    374     1   108.4600466 328.025600
    373    377    442     1   110.1100470 384.091200
    373    371    374     1   109.5600471 388.275200
    375    373    377     1   107.9000462 406.684800
    375    373    376     1   108.4600466 328.025600
    376    373    377     1   107.9000462 406.684800
    377    378    387     1   107.9000462 406.684800
    377    378    388     1   107.9000462 406.684800
    377    379    380     1   107.9000462 406.684800
    377    379    382     1   107.9000462 406.684800
    378    389    390     1   109.8000471 387.438400
    378    389    391     1   109.8000471 387.438400
    378    377    442     1   110.1100470 384.091200
    379    381    383     1   109.8000471 387.438400
    379    381    384     1   109.8000471 387.438400
    379    377    442     1   110.1100470 384.091200
    380    379    381     1   109.5600471 388.275200
    380    379    382     1   108.4600466 328.025600
    381    379    382     1   109.5600471 388.275200
    383    381    385     1   108.7700466 392.459200
    383    381    384     1   107.5800459 329.699200
    384    381    385     1   108.7700466 392.459200
    385    417    407     1   119.3800509 410.868800
    387    378    389     1   109.5600471 388.275200
    387    378    388     1   108.4600466 328.025600
    388    378    389     1   109.5600471 388.275200
    390    389    392     1   108.7700466 392.459200
    390    389    391     1   107.5800459 329.699200
    391    389    392     1   108.7700466 392.459200
    392    441    431     1   119.3800509 410.868800
    394    395    414     1   109.5600471 388.275200
    394    405    408     1   109.5600471 388.275200
    394    405    409     1   109.5600471 388.275200
    395    397    401     1   109.5600471 388.275200
    395    415    416     1   107.2600461 396.643200
    395    394    396     1   109.5600471 388.275200
    396    394    405     1   109.5600471 388.275200
    396    394    412     1   109.7800468 425.094400
    397    398    400     1   109.5600471 388.275200
    397    404    406     1   107.2600461 396.643200
    397    395    414     1   109.5600471 388.275200
    398    399    402     1   110.2200475 386.601600
    398    417    407     1   109.2900470 396.643200
    398    397    401     1   109.5600471 388.275200
    399    403    413     1   107.2600461 396.643200
    399    398    400     1   109.5600471 388.275200
    400    398    417     1   109.8800469 414.216000
    401    397    404     1   110.2600474 425.931200
    402    399    403     1   109.4300470 427.604800
    402    399    412     1   109.5800467 425.931200
    405    410    411     1   107.2600461 396.643200
    408    405    410     1   110.2600474 425.931200
    408    405    409     1   108.4600466 328.025600
    409    405    410     1   110.2600474 425.931200
    414    395    415     1   110.2600474 425.931200
    418    419    438     1   109.5600471 388.275200
    418    429    432     1   109.5600471 388.275200
    418    429    433     1   109.5600471 388.275200
    419    421    425     1   109.5600471 388.275200
    419    439    440     1   107.2600461 396.643200
    419    418    420     1   109.5600471 388.275200
    420    418    429     1   109.5600471 388.275200
    420    418    436     1   109.7800468 425.094400
    421    422    424     1   109.5600471 388.275200
    421    428    430     1   107.2600461 396.643200
    421    419    438     1   109.5600471 388.275200
    422    423    426     1   110.2200475 386.601600
    422    441    431     1   109.2900470 396.643200
    422    421    425     1   109.5600471 388.275200
    423    427    437     1   107.2600461 396.643200
    423    422    424     1   109.5600471 388.275200
    424    422    441     1   109.8800469 414.216000
    425    421    428     1   110.2600474 425.931200
    426    423    427     1   109.4300470 427.604800
    426    423    436     1   109.5800467 425.931200
    429    434    435     1   107.2600461 396.643200
    432    429    434     1   110.2600474 425.931200
    432    429    433     1   108.4600466 328.025600
    433    429    434     1   110.2600474 425.931200
    438    419    439     1   110.2600474 425.931200
    443    445    446     1   108.8800464 416.726400
    443    445    448     1   108.8800464 416.726400
    444    443    445     1   117.6800502 383.254400
    445    447    449     1   109.5600471 388.275200
    445    447    450     1   109.5600471 388.275200
    446    445    447     1   109.5600471 388.275200
    446    445    448     1   108.4600466 328.025600
    447    445    448     1   109.5600471 388.275200
    447    451    516     1   110.1100470 384.091200
    449    447    451     1   107.9000462 406.684800
    449    447    450     1   108.4600466 328.025600
    450    447    451     1   107.9000462 406.684800
    451    452    461     1   107.9000462 406.684800
    451    452    462     1   107.9000462 406.684800
    451    453    454     1   107.9000462 406.684800
    451    453    456     1   107.9000462 406.684800
    452    451    516     1   110.1100470 384.091200
    452    463    464     1   109.8000471 387.438400
    452    463    465     1   109.8000471 387.438400
    453    451    516     1   110.1100470 384.091200
    453    455    457     1   109.8000471 387.438400
    453    455    458     1   109.8000471 387.438400
    454    453    455     1   109.5600471 388.275200
    454    453    456     1   108.4600466 328.025600
    455    453    456     1   109.5600471 388.275200
    457    455    459     1   108.7700466 392.459200
    457    455    458     1   107.5800459 329.699200
    458    455    459     1   108.7700466 392.459200
    459    491    481     1   119.3800509 410.868800
    461    452    463     1   109.5600471 388.275200
    461    452    462     1   108.4600466 328.025600
    462    452    463     1   109.5600471 388.275200
    464    463    466     1   108.7700466 392.459200
    464    463    465     1   107.5800459 329.699200
    465    463    466     1   108.7700466 392.459200
    466    515    505     1   119.3800509 410.868800
    468    469    488     1   109.5600471 388.275200
    468    479    482     1   109.5600471 388.275200
    468    479    483     1   109.5600471 388.275200
    469    468    470     1   109.5600471 388.275200
    469    471    475     1   109.5600471 388.275200
    469    489    490     1   107.2600461 396.643200
    470    468    479     1   109.5600471 388.275200
    470    468    486     1   109.7800468 425.094400
    471    469    488     1   109.5600471 388.275200
    471    472    474     1   109.5600471 388.275200
    471    478    480     1   107.2600461 396.643200
    472    471    475     1   109.5600471 388.275200
    472    473    476     1   110.2200475 386.601600
    472    491    481     1   109.2900470 396.643200
    473    472    474     1   109.5600471 388.275200
    473    477    487     1   107.2600461 396.643200
    474    472    491     1   109.8800469 414.216000
    475    471    478     1   110.2600474 425.931200
    476    473    477     1   109.4300470 427.604800
    476    473    486     1   109.5800467 425.931200
    479    484    485     1   107.2600461 396.643200
    482    479    484     1   110.2600474 425.931200
    482    479    483     1   108.4600466 328.025600
    483    479    484     1   110.2600474 425.931200
    488    469    489     1   110.2600474 425.931200
    492    493    512     1   109.5600471 388.275200
    492    503    506     1   109.5600471 388.275200
    492    503    507     1   109.5600471 388.275200
    493    492    494     1   109.5600471 388.275200
    493    495    499     1   109.5600471 388.275200
    493    513    514     1   107.2600461 396.643200
    494    492    503     1   109.5600471 388.275200
    494    492    510     1   109.7800468 425.094400
    495    493    512     1   109.5600471 388.275200
    495    496    498     1   109.5600471 388.275200
    495    502    504     1   107.2600461 396.643200
    496    495    499     1   109.5600471 388.275200
    496    497    500     1   110.2200475 386.601600
    496    515    505     1   109.2900470 396.643200
    497    496    498     1   109.5600471 388.275200
    497    501    511     1   107.2600461 396.643200
    498    496    515     1   109.8800469 414.216000
    499    495    502     1   110.2600474 425.931200
    500    497    501     1   109.4300470 427.604800
    500    497    510     1   109.5800467 425.931200
    503    508    509     1   107.2600461 396.643200
    506    503    508     1   110.2600474 425.931200
    506    503    507     1   108.4600466 328.025600
    507    503    508     1   110.2600474 425.931200
    512    493    513     1   110.2600474 425.931200
    517    519    520     1   108.8800464 416.726400
    517    519    522     1   108.8800464 416.726400
    518    517    519     1   117.6800502 383.254400
    519    521    523     1   109.5600471 388.275200
    519    521    524     1   109.5600471 388.275200
    520    519    521     1   109.5600471 388.275200
    520    519    522     1   108.4600466 328.025600
    521    525    590     1   110.1100470 384.091200
    521    519    522     1   109.5600471 388.275200
    523    521    525     1   107.9000462 406.684800
    523    521    524     1   108.4600466 328.025600
    524    521    525     1   107.9000462 406.684800
    525    526    535     1   107.9000462 406.684800
    525    526    536     1   107.9000462 406.684800
    525    527    528     1   107.9000462 406.684800
    525    527    530     1   107.9000462 406.684800
    526    537    538     1   109.8000471 387.438400
    526    537    539     1   109.8000471 387.438400
    526    525    590     1   110.1100470 384.091200
    527    529    531     1   109.8000471 387.438400
    527    529    532     1   109.8000471 387.438400
    527    525    590     1   110.1100470 384.091200
    528    527    529     1   109.5600471 388.275200
    528    527    530     1   108.4600466 328.025600
    529    527    530     1   109.5600471 388.275200
    531    529    533     1   108.7700466 392.459200
    531    529    532     1   107.5800459 329.699200
    532    529    533     1   108.7700466 392.459200
    533    565    555     1   119.3800509 410.868800
    535    526    537     1   109.5600471 388.275200
    535    526    536     1   108.4600466 328.025600
    536    526    537     1   109.5600471 388.275200
    538    537    540     1   108.7700466 392.459200
    538    537    539     1   107.5800459 329.699200
    539    537    540     1   108.7700466 392.459200
    540    589    579     1   119.3800509 410.868800
    542    543    562     1   109.5600471 388.275200
    542    553    556     1   109.5600471 388.275200
    542    553    557     1   109.5600471 388.275200
    543    545    549     1   109.5600471 388.275200
    543    563    564     1   107.2600461 396.643200
    543    542    544     1   109.5600471 388.275200
    544    542    553     1   109.5600471 388.275200
    544    542    560     1   109.7800468 425.094400
    545    546    548     1   109.5600471 388.275200
    545    552    554     1   107.2600461 396.643200
    545    543    562     1   109.5600471 388.275200
    546    547    550     1   110.2200475 386.601600
    546    565    555     1   109.2900470 396.643200
    546    545    549     1   109.5600471 388.275200
    547    551    561     1   107.2600461 396.643200
    547    546    548     1   109.5600471 388.275200
    548    546    565     1   109.8800469 414.216000
    549    545    552     1   110.2600474 425.931200
    550    547    551     1   109.4300470 427.604800
    550    547    560     1   109.5800467 425.931200
    553    558    559     1   107.2600461 396.643200
    556    553    558     1   110.2600474 425.931200
    556    553    557     1   108.4600466 328.025600
    557    553    558     1   110.2600474 425.931200
    562    543    563     1   110.2600474 425.931200
    566    567    586     1   109.5600471 388.275200
    566    577    580     1   109.5600471 388.275200
    566    577    581     1   109.5600471 388.275200
    567    569    573     1   109.5600471 388.275200
    567    587    588     1   107.2600461 396.643200
    567    566    568     1   109.5600471 388.275200
    568    566    577     1   109.5600471 388.275200
    568    566    584     1   109.7800468 425.094400
    569    570    572     1   109.5600471 388.275200
    569    576    578     1   107.2600461 396.643200
    569    567    586     1   109.5600471 388.275200
    570    571    574     1   110.2200475 386.601600
    570    589    579     1   109.2900470 396.643200
    570    569    573     1   109.5600471 388.275200
    571    575    585     1   107.2600461 396.643200
    571    570    572     1   109.5600471 388.275200
    572    570    589     1   109.8800469 414.216000
    573    569    576     1   110.2600474 425.931200
    574    571    575     1   109.4300470 427.604800
    574    571    584     1   109.5800467 425.931200
    577    582    583     1   107.2600461 396.643200
    580    577    582     1   110.2600474 425.931200
    580    577    581     1   108.4600466 328.025600
    581    577    582     1   110.2600474 425.931200
    586    567    587     1   110.2600474 425.931200
    591    593    594     1   108.8800464 416.726400
    591    593    596     1   108.8800464 416.726400
    592    591    593     1   117.6800502 383.254400
    593    595    597     1   109.5600471 388.275200
    593    595    598     1   109.5600471 388.275200
    594    593    595     1   109.5600471 388.275200
    594    593    596     1   108.4600466 328.025600
    595    593    596     1   109.5600471 388.275200
    595    599    664     1   110.1100470 384.091200
    597    595    599     1   107.9000462 406.684800
    597    595    598     1   108.4600466 328.025600
    598    595    599     1   107.9000462 406.684800
    599    600    609     1   107.9000462 406.684800
    599    600    610     1   107.9000462 406.684800
    599    601    602     1   107.9000462 406.684800
    599    601    604     1   107.9000462 406.684800
    600    599    664     1   110.1100470 384.091200
    600    611    612     1   109.8000471 387.438400
    600    611    613     1   109.8000471 387.438400
    601    599    664     1   110.1100470 384.091200
    601    603    605     1   109.8000471 387.438400
    601    603    606     1   109.8000471 387.438400
    602    601    603     1   109.5600471 388.275200
    602    601    604     1   108.4600466 328.025600
    603    601    604     1   109.5600471 388.275200
    605    603    607     1   108.7700466 392.459200
    605    603    606     1   107.5800459 329.699200
    606    603    607     1   108.7700466 392.459200
    607    639    629     1   119.3800509 410.868800
    609    600    611     1   109.5600471 388.275200
    609    600    610     1   108.4600466 328.025600
    610    600    611     1   109.5600471 388.275200
    612    611    614     1   108.7700466 392.459200
    612    611    613     1   107.5800459 329.699200
    613    611    614     1   108.7700466 392.459200
    614    663    653     1   119.3800509 410.868800
    616    617    636     1   109.5600471 388.275200
    616    627    630     1   109.5600471 388.275200
    616    627    631     1   109.5600471 388.275200
    617    616    618     1   109.5600471 388.275200
    617    619    623     1   109.5600471 388.275200
    617    637    638     1   107.2600461 396.643200
    618    616    627     1   109.5600471 388.275200
    618    616    634     1   109.7800468 425.094400
    619    617    636     1   109.5600471 388.275200
    619    620    622     1   109.5600471 388.275200
    619    626    628     1   107.2600461 396.643200
    620    619    623     1   109.5600471 388.275200
    620    621    624     1   110.2200475 386.601600
    620    639    629     1   109.2900470 396.643200
    621    620    622     1   109.5600471 388.275200
    621    625    635     1   107.2600461 396.643200
    622    620    639     1   109.8800469 414.216000
    623    619    626     1   110.2600474 425.931200
    624    621    625     1   109.4300470 427.604800
    624    621    634     1   109.5800467 425.931200
    627    632    633     1   107.2600461 396.643200
    630    627    632     1   110.2600474 425.931200
    630    627    631     1   108.4600466 328.025600
    631    627    632     1   110.2600474 425.931200
    636    617    637     1   110.2600474 425.931200
    640    641    660     1   109.5600471 388.275200
    640    651    654     1   109.5600471 388.275200
    640    651    655     1   109.5600471 388.275200
    641    640    642     1   109.5600471 388.275200
    641    643    647     1   109.5600471 388.275200
    641    661    662     1   107.2600461 396.643200
    642    640    651     1   109.5600471 388.275200
    642    640    658     1   109.7800468 425.094400
    643    641    660     1   109.5600471 388.275200
    643    644    646     1   109.5600471 388.275200
    643    650    652     1   107.2600461 396.643200
    644    643    647     1   109.5600471 388.275200
    644    645    648     1   110.2200475 386.601600
    644    663    653     1   109.2900470 396.643200
    645    644    646     1   109.5600471 388.275200
    645    649    659     1   107.2600461 396.643200
    646    644    663     1   109.8800469 414.216000
    647    643    650     1   110.2600474 425.931200
    648    645    649     1   109.4300470 427.604800
    648    645    658     1   109.5800467 425.931200
    651    656    657     1   107.2600461 396.643200
    654    651    656     1   110.2600474 425.931200
    654    651    655     1   108.4600466 328.025600
    655    651    656     1   110.2600474 425.931200
    660    641    661     1   110.2600474 425.931200
    665    667    668     1   108.8800464 416.726400
    665    667    670     1   108.8800464 416.726400
    666    665    667     1   117.6800502 383.254400
    667    669    671     1   109.5600471 388.275200
    667    669    672     1   109.5600471 388.275200
    668    667    669     1   109.5600471 388.275200
    668    667    670     1   108.4600466 328.025600
    669    673    738     1   110.1100470 384.091200
    669    667    670     1   109.5600471 388.275200
    671    669    673     1   107.9000462 406.684800
    671    669    672     1   108.4600466 328.025600
    672    669    673     1   107.9000462 406.684800
    673    674    683     1   107.9000462 406.684800
    673    674    684     1   107.9000462 406.684800
    673    675    676     1   107.9000462 406.684800
    673    675    678     1   107.9000462 406.684800
    674    685    686     1   109.8000471 387.438400
    674    685    687     1   109.8000471 387.438400
    674    673    738     1   110.1100470 384.091200
    675    677    679     1   109.8000471 387.438400
    675    677    680     1   109.8000471 387.438400
    675    673    738     1   110.1100470 384.091200
    676    675    677     1   109.5600471 388.275200
    676    675    678     1   108.4600466 328.025600
    677    675    678     1   109.5600471 388.275200
    679    677    681     1   108.7700466 392.459200
    679    677    680     1   107.5800459 329.699200
    680    677    681     1   108.7700466 392.459200
    681    713    703     1   119.3800509 410.868800
    683    674    685     1   109.5600471 388.275200
    683    674    684     1   108.4600466 328.025600
    684    674    685     1   109.5600471 388.275200
    686    685    688     1   108.7700466 392.459200
    686    685    687     1   107.5800459 329.699200
    687    685    688     1   108.7700466 392.459200
    688    737    727     1   119.3800509 410.868800
    690    691    710     1   109.5600471 388.275200
    690    701    704     1   109.5600471 388.275200
    690    701    705     1   109.5600471 388.275200
    691    693    697     1   109.5600471 388.275200
    691    711    712     1   107.2600461 396.643200
    691    690    692     1   109.5600471 388.275200
    692    690    701     1   109.5600471 388.275200
    692    690    708     1   109.7800468 425.094400
    693    694    696     1   109.5600471 388.275200
    693    700    702     1   107.2600461 396.643200
    693    691    710     1   109.5600471 388.275200
    694    695    698     1   110.2200475 386.601600
    694    713    703     1   109.2900470 396.643200
    694    693    697     1   109.5600471 388.275200
    695    699    709     1   107.2600461 396.643200
    695    694    696     1   109.5600471 388.275200
    696    694    713     1   109.8800469 414.216000
    697    693    700     1   110.2600474 425.931200
    698    695    699     1   109.4300470 427.604800
    698    695    708     1   109.5800467 425.931200
    701    706    707     1   107.2600461 396.643200
    704    701    706     1   110.2600474 425.931200
    704    701    705     1   108.4600466 328.025600
    705    701    706     1   110.2600474 425.931200
    710    691    711     1   110.2600474 425.931200
    714    715    734     1   109.5600471 388.275200
    714    725    728     1   109.5600471 388.275200
    714    725    729     1   109.5600471 388.275200
    715    717    721     1   109.5600471 388.275200
    715    735    736     1   107.2600461 396.643200
    715    714    716     1   109.5600471 388.275200
    716    714    725     1   109.5600471 388.275200
    716    714    732     1   109.7800468 425.094400
    717    718    720     1   109.5600471 388.275200
    717    724    726     1   107.2600461 396.643200
    717    715    734     1   109.5600471 388.275200
    718    719    722     1   110.2200475 386.601600
    718    737    727     1   109.2900470 396.643200
    718    717    721     1   109.5600471 388.275200
    719    723    733     1   107.2600461 396.643200
    719    718    720     1   109.5600471 388.275200
    720    718    737     1   109.8800469 414.216000
    721    717    724     1   110.2600474 425.931200
    722    719    723     1   109.4300470 427.604800
    722    719    732     1   109.5800467 425.931200
    725    730    731     1   107.2600461 396.643200
    728    725    730     1   110.2600474 425.931200
    728    725    729     1   108.4600466 328.025600
    729    725    730     1   110.2600474 425.931200
    734    715    735     1   110.2600474 425.931200

[ dihedrals ]
;    ai     aj     ak     al funct         c0         c1         c2         c3         c4         c5
      1      2      3      4     1  0.0000000  0.6508444  3
      1      7     13     14     1  0.0000000  0.6508444  3
      1      8     15     16     1  0.0000000  0.6508444  3
      2      1      7     13     1  0.0000000  0.6508444  3
      2      1      8     15     1  0.0000000  0.6508444  3
      2      3      4      5     1  0.0000000  0.6508444  3
      2      3      4      6     1  0.0000000  0.6508444  3
      7      1      2      3     1  0.0000000  0.6508444  3
      8      1      2      3     1  0.0000000  0.6508444  3
      3      4      5     11     1  0.0000000  0.6508444  3
      3      4      6      9     1  0.0000000  0.6508444  3
      4      5     11     12     1  0.0000000  0.6508444  3
      4      6      9     10     1  0.0000000  0.6508444  3
      5      4      6      9     1  0.0000000  0.6508444  3
      5     11     12     17     1  180.0000771  0.0000000  2
      5     11     12     78     1  0.0000000  0.2928800  2
      5     11     12     78     1  0.0000000  0.4184000  4
      6      4      5     11     1  0.0000000  0.6508444  3
      6      9     10     18     1  180.0000771  0.0000000  2
      6      9     10     52     1  0.0000000  0.2928800  2
      6      9     10     52     1  0.0000000  0.4184000  4
      7      1      8     15     1  0.0000000  0.6508444  3
      7     13     14     20     1  180.0000771  0.0000000  2
      7     13     14    104     1  0.0000000  0.2928800  2
      7     13     14    104     1  0.0000000  0.4184000  4
      8      1      7     13     1  0.0000000  0.6508444  3
      8     15     16     19     1  180.0000771  0.0000000  2
      8     15     16    130     1  0.0000000  0.2928800  2
      8     15     16    130     1  0.0000000  0.4184000  4
      9     10     52     51     1  180.0000771  6.2760000  1
      9     10     52     51     1  0.0000000  0.0000000  2
     10     52     51     50     1  0.0000000  2.2175200  1
     10     52     51     50     1  0.0000000  0.0000000  2
     10     52     51     50     1  180.0000771  0.6276000  3
     10     52     51     50     1  180.0000771  2.0920000  4
     11     12     78     77     1  180.0000771  6.2760000  1
     11     12     78     77     1  0.0000000  0.0000000  2
     12     78     77     76     1  0.0000000  2.2175200  1
     12     78     77     76     1  0.0000000  0.0000000  2
     12     78     77     76     1  180.0000771  0.6276000  3
     12     78     77     76     1  180.0000771  2.0920000  4
     13     14    104    103     1  180.0000771  6.2760000  1
     13     14    104    103     1  0.0000000  0.0000000  2
     14    104    103    102     1  0.0000000  2.2175200  1
     14    104    103    102     1  0.0000000  0.0000000  2
     14    104    103    102     1  180.0000771  0.6276000  3
     14    104    103    102     1  180.0000771  2.0920000  4
     15     16    130    129     1  180.0000771  6.2760000  1
     15     16    130    129     1  0.0000000  0.0000000  2
     16    130    129    128     1  0.0000000  2.2175200  1
     16    130    129    128     1  0.0000000  0.0000000  2
     16    130    129    128     1  180.0000771  0.6276000  3
     16    130    129    128     1  180.0000771  2.0920000  4
     17     12     78     77     1  180.0000771  10.4600000  2
     18     10     52     51     1  180.0000771  10.4600000  2
     19     16    130    129     1  180.0000771  10.4600000  2
     20     14    104    103     1  180.0000771  10.4600000  2
     43     44     46     47     1  0.0000000  0.6508444  3
     43     45     48     49     1  0.0000000  0.6508444  3
     43     50     51     52     1  0.0000000  0.6508444  3
     44     43     45     48     1  0.0000000  0.6508444  3
     44     43     50     51     1  0.0000000  0.6508444  3
     44     46     47    147     1  0.0000000  0.2928800  2
     44     46     47    147     1  0.0000000  0.4184000  4
     44     46     47     53     1  180.0000771  0.0000000  2
     45     43     44     46     1  0.0000000  0.6508444  3
     45     43     50     51     1  0.0000000  0.6508444  3
     45     48     49     54     1  180.0000771  0.0000000  2
     45     48     49    221     1  0.0000000  0.2928800  2
     45     48     49    221     1  0.0000000  0.4184000  4
     46     44     43     50     1  0.0000000  0.6508444  3
     46     47    147    149     1  180.0000771  6.2760000  1
     46     47    147    149     1  0.0000000  0.0000000  2
     47    147    149    151     1  0.0000000  2.2175200  1
     47    147    149    151     1  0.0000000  0.0000000  2
     47    147    149    151     1  180.0000771  0.6276000  3
     47    147    149    151     1  180.0000771  2.0920000  4
     48     45     43     50     1  0.0000000  0.6508444  3
     48     49    221    223     1  180.0000771  6.2760000  1
     48     49    221    223     1  0.0000000  0.0000000  2
     49    221    223    225     1  0.0000000  2.2175200  1
     49    221    223    225     1  0.0000000  0.0000000  2
     49    221    223    225     1  180.0000771  0.6276000  3
     49    221    223    225     1  180.0000771  2.0920000  4
     53     47    147    149     1  180.0000771  10.4600000  2
     54     49    221    223     1  180.0000771  10.4600000  2
     69     70     72     73     1  0.0000000  0.6508444  3
     69     71     74     75     1  0.0000000  0.6508444  3
     69     76     77     78     1  0.0000000  0.6508444  3
     70     69     71     74     1  0.0000000  0.6508444  3
     70     69     76     77     1  0.0000000  0.6508444  3
     70     72     73    295     1  0.0000000  0.2928800  2
     70     72     73    295     1  0.0000000  0.4184000  4
     70     72     73     79     1  180.0000771  0.0000000  2
     71     69     70     72     1  0.0000000  0.6508444  3
     71     69     76     77     1  0.0000000  0.6508444  3
     71     74     75     80     1  180.0000771  0.0000000  2
     71     74     75    369     1  0.0000000  0.2928800  2
     71     74     75    369     1  0.0000000  0.4184000  4
     72     70     69     76     1  0.0000000  0.6508444  3
     72     73    295    297     1  180.0000771  6.2760000  1
     72     73    295    297     1  0.0000000  0.0000000  2
     73    295    297    299     1  0.0000000  2.2175200  1
     73    295    297    299     1  0.0000000  0.0000000  2
     73    295    297    299     1  180.0000771  0.6276000  3
     73    295    297    299     1  180.0000771  2.0920000  4
     74     71     69     76     1  0.0000000  0.6508444  3
     74     75    369    371     1  180.0000771  6.2760000  1
     74     75    369    371     1  0.0000000  0.0000000  2
     75    369    371    373     1  0.0000000  2.2175200  1
     75    369    371    373     1  0.0000000  0.0000000  2
     75    369    371    373     1  180.0000771  0.6276000  3
     75    369    371    373     1  180.0000771  2.0920000  4
     79     73    295    297     1  180.0000771  10.4600000  2
     80     75    369    371     1  180.0000771  10.4600000  2
     95     96     98     99     1  0.0000000  0.6508444  3
     95     97    100    101     1  0.0000000  0.6508444  3
     95    102    103    104     1  0.0000000  0.6508444  3
     96     95     97    100     1  0.0000000  0.6508444  3
     96     95    102    103     1  0.0000000  0.6508444  3
     96     98     99    443     1  0.0000000  0.2928800  2
     96     98     99    443     1  0.0000000  0.4184000  4
     96     98     99    105     1  180.0000771  0.0000000  2
     97     95     96     98     1  0.0000000  0.6508444  3
     97     95    102    103     1  0.0000000  0.6508444  3
     97    100    101    106     1  180.0000771  0.0000000  2
     97    100    101    517     1  0.0000000  0.2928800  2
     97    100    101    517     1  0.0000000  0.4184000  4
     98     96     95    102     1  0.0000000  0.6508444  3
     98     99    443    445     1  180.0000771  6.2760000  1
     98     99    443    445     1  0.0000000  0.0000000  2
     99    443    445    447     1  0.0000000  2.2175200  1
     99    443    445    447     1  0.0000000  0.0000000  2
     99    443    445    447     1  180.0000771  0.6276000  3
     99    443    445    447     1  180.0000771  2.0920000  4
    100     97     95    102     1  0.0000000  0.6508444  3
    100    101    517    519     1  180.0000771  6.2760000  1
    100    101    517    519     1  0.0000000  0.0000000  2
    101    517    519    521     1  0.0000000  2.2175200  1
    101    517    519    521     1  0.0000000  0.0000000  2
    101    517    519    521     1  180.0000771  0.6276000  3
    101    517    519    521     1  180.0000771  2.0920000  4
    105     99    443    445     1  180.0000771  10.4600000  2
    106    101    517    519     1  180.0000771  10.4600000  2
    121    122    124    125     1  0.0000000  0.6508444  3
    121    123    126    127     1  0.0000000  0.6508444  3
    121    128    129    130     1  0.0000000  0.6508444  3
    122    121    123    126     1  0.0000000  0.6508444  3
    122    121    128    129     1  0.0000000  0.6508444  3
    122    124    125    591     1  0.0000000  0.2928800  2
    122    124    125    591     1  0.0000000  0.4184000  4
    122    124    125    131     1  180.0000771  0.0000000  2
    123    121    122    124     1  0.0000000  0.6508444  3
    123    121    128    129     1  0.0000000  0.6508444  3
    123    126    127    665     1  0.0000000  0.2928800  2
    123    126    127    665     1  0.0000000  0.4184000  4
    123    126    127    132     1  180.0000771  0.0000000  2
    124    122    121    128     1  0.0000000  0.6508444  3
    124    125    591    593     1  180.0000771  6.2760000  1
    124    125    591    593     1  0.0000000  0.0000000  2
    125    591    593    595     1  0.0000000  2.2175200  1
    125    591    593    595     1  0.0000000  0.0000000  2
    125    591    593    595     1  180.0000771  0.6276000  3
    125    591    593    595     1  180.0000771  2.0920000  4
    126    123    121    128     1  0.0000000  0.6508444  3
    126    127    665    667     1  180.0000771  6.2760000  1
    126    127    665    667     1  0.0000000  0.0000000  2
    127    665    667    669     1  0.0000000  2.2175200  1
    127    665    667    669     1  0.0000000  0.0000000  2
    127    665    667    669     1  180.0000771  0.6276000  3
    127    665    667    669     1  180.0000771  2.0920000  4
    131    125    591    593     1  180.0000771  10.4600000  2
    132    127    665    667     1  180.0000771  10.4600000  2
    147    149    151    155     1  0.0000000  0.6508444  3
    149    151    155    156     1  0.0000000  0.6508444  3
    149    151    155    157     1  0.0000000  0.6508444  3
    151    155    156    167     1  0.0000000  0.6508444  3
    151    155    157    159     1  0.0000000  0.6508444  3
    155    156    167    170     1  0.0000000  0.6508444  3
    155    157    159    163     1  0.0000000  0.6508444  3
    156    155    157    159     1  0.0000000  0.6508444  3
    156    167    170    171     1  180.0000771  0.0000000  2
    156    167    170    219     1  180.0000771  0.0000000  2
    157    155    156    167     1  0.0000000  0.6508444  3
    157    159    163    164     1  180.0000771  0.0000000  2
    157    159    163    195     1  180.0000771  0.0000000  2
    159    163    195    176     1  180.0000771  6.0668000  2
    159    163    195    176     1  180.0000771  1.4644000  4
    163    195    176    175     1  0.0000000  1.2552000  3
    163    195    176    177     1  0.0000000  1.2552000  3
    164    163    195    176     1  180.0000771  6.0668000  2
    164    163    195    176     1  180.0000771  1.4644000  4
    167    170    219    200     1  180.0000771  6.0668000  2
    167    170    219    200     1  180.0000771  1.4644000  4
    170    219    200    199     1  0.0000000  1.2552000  3
    170    219    200    201     1  0.0000000  1.2552000  3
    171    170    219    200     1  180.0000771  6.0668000  2
    171    170    219    200     1  180.0000771  1.4644000  4
    172    173    175    176     1  180.0000771  0.8368000  1
    172    173    175    176     1  180.0000771  1.0460000  2
    172    173    175    176     1  0.0000000  0.7531200  3
    172    173    175    182     1  0.0000000  0.6508444  3
    172    190    177    176     1  180.0000771  0.4184000  2
    172    190    177    176     1  0.0000000  1.6024720  3
    172    190    177    181     1  0.0000000  1.6038667  3
    173    172    183    188     1  0.0000000  0.6508444  3
    173    172    190    177     1  180.0000771  0.4184000  2
    173    172    190    177     1  0.0000000  1.6024720  3
    173    175    176    177     1  180.0000771  0.8368000  1
    173    175    176    177     1  180.0000771  1.0460000  2
    173    175    176    177     1  0.0000000  0.7531200  3
    173    175    176    195     1  0.0000000  0.6508444  3
    175    173    172    183     1  180.0000771  0.8368000  1
    175    173    172    183     1  180.0000771  1.0460000  2
    175    173    172    183     1  0.0000000  0.7531200  3
    175    173    172    190     1  0.0000000  0.6508444  3
    175    176    177    181     1  0.0000000  0.6508444  3
    175    176    177    190     1  0.0000000  0.6508444  3
    176    175    173    193     1  0.0000000  0.6508444  3
    177    176    175    182     1  0.0000000  0.6508444  3
    177    190    172    183     1  180.0000771  0.4184000  2
    177    190    172    183     1  0.0000000  1.6024720  3
    181    177    176    195     1  0.0000000  0.6508444  3
    182    175    173    193     1  0.0000000  4.9162000  2
    182    175    173    193     1  0.0000000  0.6024960  3
    182    175    176    195     1  0.0000000  0.6508444  3
    183    172    173    193     1  0.0000000  0.6508444  3
    188    183    172    190     1  0.0000000  4.9162000  2
    188    183    172    190     1  0.0000000  0.6024960  3
    190    172    173    193     1  0.0000000  4.9162000  2
    190    172    173    193     1  0.0000000  0.6024960  3
    190    177    176    195     1  0.0000000  0.6508444  3
    196    197    199    200     1  180.0000771  0.8368000  1
    196    197    199    200     1  180.0000771  1.0460000  2
    196    197    199    200     1  0.0000000  0.7531200  3
    196    197    199    206     1  0.0000000  0.6508444  3
    196    214    201    200     1  180.0000771  0.4184000  2
    196    214    201    200     1  0.0000000  1.6024720  3
    196    214    201    205     1  0.0000000  1.6038667  3
    197    196    207    212     1  0.0000000  0.6508444  3
    197    196    214    201     1  180.0000771  0.4184000  2
    197    196    214    201     1  0.0000000  1.6024720  3
    197    199    200    201     1  180.0000771  0.8368000  1
    197    199    200    201     1  180.0000771  1.0460000  2
    197    199    200    201     1  0.0000000  0.7531200  3
    197    199    200    219     1  0.0000000  0.6508444  3
    199    197    196    207     1  180.0000771  0.8368000  1
    199    197    196    207     1  180.0000771  1.0460000  2
    199    197    196    207     1  0.0000000  0.7531200  3
    199    197    196    214     1  0.0000000  0.6508444  3
    199    200    201    205     1  0.0000000  0.6508444  3
    199    200    201    214     1  0.0000000  0.6508444  3
    200    199    197    217     1  0.0000000  0.6508444  3
    201    200    199    206     1  0.0000000  0.6508444  3
    201    214    196    207     1  180.0000771  0.4184000  2
    201    214    196    207     1  0.0000000  1.6024720  3
    205    201    200    219     1  0.0000000  0.6508444  3
    206    199    197    217     1  0.0000000  4.9162000  2
    206    199    197    217     1  0.0000000  0.6024960  3
    206    199    200    219     1  0.0000000  0.6508444  3
    207    196    197    217     1  0.0000000  0.6508444  3
    212    207    196    214     1  0.0000000  4.9162000  2
    212    207    196    214     1  0.0000000  0.6024960  3
    214    196    197    217     1  0.0000000  4.9162000  2
    214    196    197    217     1  0.0000000  0.6024960  3
    214    201    200    219     1  0.0000000  0.6508444  3
    221    223    225    229     1  0.0000000  0.6508444  3
    223    225    229    230     1  0.0000000  0.6508444  3
    223    225    229    231     1  0.0000000  0.6508444  3
    225    229    230    241     1  0.0000000  0.6508444  3
    225    229    231    233     1  0.0000000  0.6508444  3
    229    230    241    244     1  0.0000000  0.6508444  3
    229    231    233    237     1  0.0000000  0.6508444  3
    230    241    244    245     1  180.0000771  0.0000000  2
    230    241    244    293     1  180.0000771  0.0000000  2
    230    229    231    233     1  0.0000000  0.6508444  3
    231    233    237    238     1  180.0000771  0.0000000  2
    231    233    237    269     1  180.0000771  0.0000000  2
    231    229    230    241     1  0.0000000  0.6508444  3
    233    237    269    250     1  180.0000771  6.0668000  2
    233    237    269    250     1  180.0000771  1.4644000  4
    237    269    250    251     1  0.0000000  1.2552000  3
    237    269    250    249     1  0.0000000  1.2552000  3
    238    237    269    250     1  180.0000771  6.0668000  2
    238    237    269    250     1  180.0000771  1.4644000  4
    241    244    293    274     1  180.0000771  6.0668000  2
    241    244    293    274     1  180.0000771  1.4644000  4
    244    293    274    275     1  0.0000000  1.2552000  3
    244    293    274    273     1  0.0000000  1.2552000  3
    245    244    293    274     1  180.0000771  6.0668000  2
    245    244    293    274     1  180.0000771  1.4644000  4
    246    247    249    250     1  180.0000771  0.8368000  1
    246    247    249    250     1  180.0000771  1.0460000  2
    246    247    249    250     1  0.0000000  0.7531200  3
    246    247    249    256     1  0.0000000  0.6508444  3
    246    264    251    255     1  0.0000000  1.6038667  3
    246    264    251    250     1  180.0000771  0.4184000  2
    246    264    251    250     1  0.0000000  1.6024720  3
    247    249    250    251     1  180.0000771  0.8368000  1
    247    249    250    251     1  180.0000771  1.0460000  2
    247    249    250    251     1  0.0000000  0.7531200  3
    247    249    250    269     1  0.0000000  0.6508444  3
    247    246    257    262     1  0.0000000  0.6508444  3
    247    246    264    251     1  180.0000771  0.4184000  2
    247    246    264    251     1  0.0000000  1.6024720  3
    249    250    251    255     1  0.0000000  0.6508444  3
    249    250    251    264     1  0.0000000  0.6508444  3
    249    247    246    257     1  180.0000771  0.8368000  1
    249    247    246    257     1  180.0000771  1.0460000  2
    249    247    246    257     1  0.0000000  0.7531200  3
    249    247    246    264     1  0.0000000  0.6508444  3
    250    249    247    267     1  0.0000000  0.6508444  3
    251    264    246    257     1  180.0000771  0.4184000  2
    251    264    246    257     1  0.0000000  1.6024720  3
    251    250    249    256     1  0.0000000  0.6508444  3
    255    251    250    269     1  0.0000000  0.6508444  3
    256    249    250    269     1  0.0000000  0.6508444  3
    256    249    247    267     1  0.0000000  4.9162000  2
    256    249    247    267     1  0.0000000  0.6024960  3
    257    246    247    267     1  0.0000000  0.6508444  3
    262    257    246    264     1  0.0000000  4.9162000  2
    262    257    246    264     1  0.0000000  0.6024960  3
    264    251    250    269     1  0.0000000  0.6508444  3
    264    246    247    267     1  0.0000000  4.9162000  2
    264    246    247    267     1  0.0000000  0.6024960  3
    270    271    273    274     1  180.0000771  0.8368000  1
    270    271    273    274     1  180.0000771  1.0460000  2
    270    271    273    274     1  0.0000000  0.7531200  3
    270    271    273    280     1  0.0000000  0.6508444  3
    270    288    275    279     1  0.0000000  1.6038667  3
    270    288    275    274     1  180.0000771  0.4184000  2
    270    288    275    274     1  0.0000000  1.6024720  3
    271    273    274    275     1  180.0000771  0.8368000  1
    271    273    274    275     1  180.0000771  1.0460000  2
    271    273    274    275     1  0.0000000  0.7531200  3
    271    273    274    293     1  0.0000000  0.6508444  3
    271    270    281    286     1  0.0000000  0.6508444  3
    271    270    288    275     1  180.0000771  0.4184000  2
    271    270    288    275     1  0.0000000  1.6024720  3
    273    274    275    279     1  0.0000000  0.6508444  3
    273    274    275    288     1  0.0000000  0.6508444  3
    273    271    270    281     1  180.0000771  0.8368000  1
    273    271    270    281     1  180.0000771  1.0460000  2
    273    271    270    281     1  0.0000000  0.7531200  3
    273    271    270    288     1  0.0000000  0.6508444  3
    274    273    271    291     1  0.0000000  0.6508444  3
    275    288    270    281     1  180.0000771  0.4184000  2
    275    288    270    281     1  0.0000000  1.6024720  3
    275    274    273    280     1  0.0000000  0.6508444  3
    279    275    274    293     1  0.0000000  0.6508444  3
    280    273    274    293     1  0.0000000  0.6508444  3
    280    273    271    291     1  0.0000000  4.9162000  2
    280    273    271    291     1  0.0000000  0.6024960  3
    281    270    271    291     1  0.0000000  0.6508444  3
    286    281    270    288     1  0.0000000  4.9162000  2
    286    281    270    288     1  0.0000000  0.6024960  3
    288    275    274    293     1  0.0000000  0.6508444  3
    288    270    271    291     1  0.0000000  4.9162000  2
    288    270    271    291     1  0.0000000  0.6024960  3
    295    297    299    303     1  0.0000000  0.6508444  3
    297    299    303    304     1  0.0000000  0.6508444  3
    297    299    303    305     1  0.0000000  0.6508444  3
    299    303    304    315     1  0.0000000  0.6508444  3
    299    303    305    307     1  0.0000000  0.6508444  3
    303    304    315    318     1  0.0000000  0.6508444  3
    303    305    307    311     1  0.0000000  0.6508444  3
    304    303    305    307     1  0.0000000  0.6508444  3
    304    315    318    319     1  180.0000771  0.0000000  2
    304    315    318    367     1  180.0000771  0.0000000  2
    305    303    304    315     1  0.0000000  0.6508444  3
    305    307    311    312     1  180.0000771  0.0000000  2
    305    307    311    343     1  180.0000771  0.0000000  2
    307    311    343    324     1  180.0000771  6.0668000  2
    307    311    343    324     1  180.0000771  1.4644000  4
    311    343    324    323     1  0.0000000  1.2552000  3
    311    343    324    325     1  0.0000000  1.2552000  3
    312    311    343    324     1  180.0000771  6.0668000  2
    312    311    343    324     1  180.0000771  1.4644000  4
    315    318    367    348     1  180.0000771  6.0668000  2
    315    318    367    348     1  180.0000771  1.4644000  4
    318    367    348    347     1  0.0000000  1.2552000  3
    318    367    348    349     1  0.0000000  1.2552000  3
    319    318    367    348     1  180.0000771  6.0668000  2
    319    318    367    348     1  180.0000771  1.4644000  4
    320    321    323    324     1  180.0000771  0.8368000  1
    320    321    323    324     1  180.0000771  1.0460000  2
    320    321    323    324     1  0.0000000  0.7531200  3
    320    321    323    330     1  0.0000000  0.6508444  3
    320    338    325    324     1  180.0000771  0.4184000  2
    320    338    325    324     1  0.0000000  1.6024720  3
    320    338    325    329     1  0.0000000  1.6038667  3
    321    320    331    336     1  0.0000000  0.6508444  3
    321    320    338    325     1  180.0000771  0.4184000  2
    321    320    338    325     1  0.0000000  1.6024720  3
    321    323    324    325     1  180.0000771  0.8368000  1
    321    323    324    325     1  180.0000771  1.0460000  2
    321    323    324    325     1  0.0000000  0.7531200  3
    321    323    324    343     1  0.0000000  0.6508444  3
    323    321    320    331     1  180.0000771  0.8368000  1
    323    321    320    331     1  180.0000771  1.0460000  2
    323    321    320    331     1  0.0000000  0.7531200  3
    323    321    320    338     1  0.0000000  0.6508444  3
    323    324    325    329     1  0.0000000  0.6508444  3
    323    324    325    338     1  0.0000000  0.6508444  3
    324    323    321    341     1  0.0000000  0.6508444  3
    325    324    323    330     1  0.0000000  0.6508444  3
    325    338    320    331     1  180.0000771  0.4184000  2
    325    338    320    331     1  0.0000000  1.6024720  3
    329    325    324    343     1  0.0000000  0.6508444  3
    330    323    321    341     1  0.0000000  4.9162000  2
    330    323    321    341     1  0.0000000  0.6024960  3
    330    323    324    343     1  0.0000000  0.6508444  3
    331    320    321    341     1  0.0000000  0.6508444  3
    336    331    320    338     1  0.0000000  4.9162000  2
    336    331    320    338     1  0.0000000  0.6024960  3
    338    320    321    341     1  0.0000000  4.9162000  2
    338    320    321    341     1  0.0000000  0.6024960  3
    338    325    324    343     1  0.0000000  0.6508444  3
    344    345    347    348     1  180.0000771  0.8368000  1
    344    345    347    348     1  180.0000771  1.0460000  2
    344    345    347    348     1  0.0000000  0.7531200  3
    344    345    347    354     1  0.0000000  0.6508444  3
    344    362    349    348     1  180.0000771  0.4184000  2
    344    362    349    348     1  0.0000000  1.6024720  3
    344    362    349    353     1  0.0000000  1.6038667  3
    345    344    355    360     1  0.0000000  0.6508444  3
    345    344    362    349     1  180.0000771  0.4184000  2
    345    344    362    349     1  0.0000000  1.6024720  3
    345    347    348    349     1  180.0000771  0.8368000  1
    345    347    348    349     1  180.0000771  1.0460000  2
    345    347    348    349     1  0.0000000  0.7531200  3
    345    347    348    367     1  0.0000000  0.6508444  3
    347    345    344    355     1  180.0000771  0.8368000  1
    347    345    344    355     1  180.0000771  1.0460000  2
    347    345    344    355     1  0.0000000  0.7531200  3
    347    345    344    362     1  0.0000000  0.6508444  3
    347    348    349    353     1  0.0000000  0.6508444  3
    347    348    349    362     1  0.0000000  0.6508444  3
    348    347    345    365     1  0.0000000  0.6508444  3
    349    348    347    354     1  0.0000000  0.6508444  3
    349    362    344    355     1  180.0000771  0.4184000  2
    349    362    344    355     1  0.0000000  1.6024720  3
    353    349    348    367     1  0.0000000  0.6508444  3
    354    347    345    365     1  0.0000000  4.9162000  2
    354    347    345    365     1  0.0000000  0.6024960  3
    354    347    348    367     1  0.0000000  0.6508444  3
    355    344    345    365     1  0.0000000  0.6508444  3
    360    355    344    362     1  0.0000000  4.9162000  2
    360    355    344    362     1  0.0000000  0.6024960  3
    362    344    345    365     1  0.0000000  4.9162000  2
    362    344    345    365     1  0.0000000  0.6024960  3
    362    349    348    367     1  0.0000000  0.6508444  3
    369    371    373    377     1  0.0000000  0.6508444  3
    371    373    377    378     1  0.0000000  0.6508444  3
    371    373    377    379     1  0.0000000  0.6508444  3
    373    377    378    389     1  0.0000000  0.6508444  3
    373    377    379    381     1  0.0000000  0.6508444  3
    377    378    389    392     1  0.0000000  0.6508444  3
    377    379    381    385     1  0.0000000  0.6508444  3
    378    389    392    393     1  180.0000771  0.0000000  2
    378    389    392    441     1  180.0000771  0.0000000  2
    378    377    379    381     1  0.0000000  0.6508444  3
    379    381    385    386     1  180.0000771  0.0000000  2
    379    381    385    417     1  180.0000771  0.0000000  2
    379    377    378    389     1  0.0000000  0.6508444  3
    381    385    417    398     1  180.0000771  6.0668000  2
    381    385    417    398     1  180.0000771  1.4644000  4
    385    417    398    399     1  0.0000000  1.2552000  3
    385    417    398    397     1  0.0000000  1.2552000  3
    386    385    417    398     1  180.0000771  6.0668000  2
    386    385    417    398     1  180.0000771  1.4644000  4
    389    392    441    422     1  180.0000771  6.0668000  2
    389    392    441    422     1  180.0000771  1.4644000  4
    392    441    422    423     1  0.0000000  1.2552000  3
    392    441    422    421     1  0.0000000  1.2552000  3
    393    392    441    422     1  180.0000771  6.0668000  2
    393    392    441    422     1  180.0000771  1.4644000  4
    394    395    397    398     1  180.0000771  0.8368000  1
    394    395    397    398     1  180.0000771  1.0460000  2
    394    395    397    398     1  0.0000000  0.7531200  3
    394    395    397    404     1  0.0000000  0.6508444  3
    394    412    399    403     1  0.0000000  1.6038667  3
    394    412    399    398     1  180.0000771  0.4184000  2
    394    412    399    398     1  0.0000000  1.6024720  3
    395    397    398    399     1  180.0000771  0.8368000  1
    395    397    398    399     1  180.0000771  1.0460000  2
    395    397    398    399     1  0.0000000  0.7531200  3
    395    397    398    417     1  0.0000000  0.6508444  3
    395    394    405    410     1  0.0000000  0.6508444  3
    395    394    412    399     1  180.0000771  0.4184000  2
    395    394    412    399     1  0.0000000  1.6024720  3
    397    398    399    403     1  0.0000000  0.6508444  3
    397    398    399    412     1  0.0000000  0.6508444  3
    397    395    394    405     1  180.0000771  0.8368000  1
    397    395    394    405     1  180.0000771  1.0460000  2
    397    395    394    405     1  0.0000000  0.7531200  3
    397    395    394    412     1  0.0000000  0.6508444  3
    398    397    395    415     1  0.0000000  0.6508444  3
    399    412    394    405     1  180.0000771  0.4184000  2
    399    412    394    405     1  0.0000000  1.6024720  3
    399    398    397    404     1  0.0000000  0.6508444  3
    403    399    398    417     1  0.0000000  0.6508444  3
    404    397    398    417     1  0.0000000  0.6508444  3
    404    397    395    415     1  0.0000000  4.9162000  2
    404    397    395    415     1  0.0000000  0.6024960  3
    405    394    395    415     1  0.0000000  0.6508444  3
    410    405    394    412     1  0.0000000  4.9162000  2
    410    405    394    412     1  0.0000000  0.6024960  3
    412    399    398    417     1  0.0000000  0.6508444  3
    412    394    395    415     1  0.0000000  4.9162000  2
    412    394    395    415     1  0.0000000  0.6024960  3
    418    419    421    422     1  180.0000771  0.8368000  1
    418    419    421    422     1  180.0000771  1.0460000  2
    418    419    421    422     1  0.0000000  0.7531200  3
    418    419    421    428     1  0.0000000  0.6508444  3
    418    436    423    427     1  0.0000000  1.6038667  3
    418    436    423    422     1  180.0000771  0.4184000  2
    418    436    423    422     1  0.0000000  1.6024720  3
    419    421    422    423     1  180.0000771  0.8368000  1
    419    421    422    423     1  180.0000771  1.0460000  2
    419    421    422    423     1  0.0000000  0.7531200  3
    419    421    422    441     1  0.0000000  0.6508444  3
    419    418    429    434     1  0.0000000  0.6508444  3
    419    418    436    423     1  180.0000771  0.4184000  2
    419    418    436    423     1  0.0000000  1.6024720  3
    421    422    423    427     1  0.0000000  0.6508444  3
    421    422    423    436     1  0.0000000  0.6508444  3
    421    419    418    429     1  180.0000771  0.8368000  1
    421    419    418    429     1  180.0000771  1.0460000  2
    421    419    418    429     1  0.0000000  0.7531200  3
    421    419    418    436     1  0.0000000  0.6508444  3
    422    421    419    439     1  0.0000000  0.6508444  3
    423    436    418    429     1  180.0000771  0.4184000  2
    423    436    418    429     1  0.0000000  1.6024720  3
    423    422    421    428     1  0.0000000  0.6508444  3
    427    423    422    441     1  0.0000000  0.6508444  3
    428    421    422    441     1  0.0000000  0.6508444  3
    428    421    419    439     1  0.0000000  4.9162000  2
    428    421    419    439     1  0.0000000  0.6024960  3
    429    418    419    439     1  0.0000000  0.6508444  3
    434    429    418    436     1  0.0000000  4.9162000  2
    434    429    418    436     1  0.0000000  0.6024960  3
    436    423    422    441     1  0.0000000  0.6508444  3
    436    418    419    439     1  0.0000000  4.9162000  2
    436    418    419    439     1  0.0000000  0.6024960  3
    443    445    447    451     1  0.0000000  0.6508444  3
    445    447    451    452     1  0.0000000  0.6508444  3
    445    447    451    453     1  0.0000000  0.6508444  3
    447    451    452    463     1  0.0000000  0.6508444  3
    447    451    453    455     1  0.0000000  0.6508444  3
    451    452    463    466     1  0.0000000  0.6508444  3
    451    453    455    459     1  0.0000000  0.6508444  3
    452    451    453    455     1  0.0000000  0.6508444  3
    452    463    466    467     1  180.0000771  0.0000000  2
    452    463    466    515     1  180.0000771  0.0000000  2
    453    451    452    463     1  0.0000000  0.6508444  3
    453    455    459    460     1  180.0000771  0.0000000  2
    453    455    459    491     1  180.0000771  0.0000000  2
    455    459    491    472     1  180.0000771  6.0668000  2
    455    459    491    472     1  180.0000771  1.4644000  4
    459    491    472    471     1  0.0000000  1.2552000  3
    459    491    472    473     1  0.0000000  1.2552000  3
    460    459    491    472     1  180.0000771  6.0668000  2
    460    459    491    472     1  180.0000771  1.4644000  4
    463    466    515    496     1  180.0000771  6.0668000  2
    463    466    515    496     1  180.0000771  1.4644000  4
    466    515    496    495     1  0.0000000  1.2552000  3
    466    515    496    497     1  0.0000000  1.2552000  3
    467    466    515    496     1  180.0000771  6.0668000  2
    467    466    515    496     1  180.0000771  1.4644000  4
    468    469    471    472     1  180.0000771  0.8368000  1
    468    469    471    472     1  180.0000771  1.0460000  2
    468    469    471    472     1  0.0000000  0.7531200  3
    468    469    471    478     1  0.0000000  0.6508444  3
    468    486    473    472     1  180.0000771  0.4184000  2
    468    486    473    472     1  0.0000000  1.6024720  3
    468    486    473    477     1  0.0000000  1.6038667  3
    469    468    479    484     1  0.0000000  0.6508444  3
    469    468    486    473     1  180.0000771  0.4184000  2
    469    468    486    473     1  0.0000000  1.6024720  3
    469    471    472    473     1  180.0000771  0.8368000  1
    469    471    472    473     1  180.0000771  1.0460000  2
    469    471    472    473     1  0.0000000  0.7531200  3
    469    471    472    491     1  0.0000000  0.6508444  3
    471    469    468    479     1  180.0000771  0.8368000  1
    471    469    468    479     1  180.0000771  1.0460000  2
    471    469    468    479     1  0.0000000  0.7531200  3
    471    469    468    486     1  0.0000000  0.6508444  3
    471    472    473    477     1  0.0000000  0.6508444  3
    471    472    473    486     1  0.0000000  0.6508444  3
    472    471    469    489     1  0.0000000  0.6508444  3
    473    472    471    478     1  0.0000000  0.6508444  3
    473    486    468    479     1  180.0000771  0.4184000  2
    473    486    468    479     1  0.0000000  1.6024720  3
    477    473    472    491     1  0.0000000  0.6508444  3
    478    471    469    489     1  0.0000000  4.9162000  2
    478    471    469    489     1  0.0000000  0.6024960  3
    478    471    472    491     1  0.0000000  0.6508444  3
    479    468    469    489     1  0.0000000  0.6508444  3
    484    479    468    486     1  0.0000000  4.9162000  2
    484    479    468    486     1  0.0000000  0.6024960  3
    486    468    469    489     1  0.0000000  4.9162000  2
    486    468    469    489     1  0.0000000  0.6024960  3
    486    473    472    491     1  0.0000000  0.6508444  3
    492    493    495    496     1  180.0000771  0.8368000  1
    492    493    495    496     1  180.0000771  1.0460000  2
    492    493    495    496     1  0.0000000  0.7531200  3
    492    493    495    502     1  0.0000000  0.6508444  3
    492    510    497    496     1  180.0000771  0.4184000  2
    492    510    497    496     1  0.0000000  1.6024720  3
    492    510    497    501     1  0.0000000  1.6038667  3
    493    492    503    508     1  0.0000000  0.6508444  3
    493    492    510    497     1  180.0000771  0.4184000  2
    493    492    510    497     1  0.0000000  1.6024720  3
    493    495    496    497     1  180.0000771  0.8368000  1
    493    495    496    497     1  180.0000771  1.0460000  2
    493    495    496    497     1  0.0000000  0.7531200  3
    493    495    496    515     1  0.0000000  0.6508444  3
    495    493    492    503     1  180.0000771  0.8368000  1
    495    493    492    503     1  180.0000771  1.0460000  2
    495    493    492    503     1  0.0000000  0.7531200  3
    495    493    492    510     1  0.0000000  0.6508444  3
    495    496    497    501     1  0.0000000  0.6508444  3
    495    496    497    510     1  0.0000000  0.6508444  3
    496    495    493    513     1  0.0000000  0.6508444  3
    497    496    495    502     1  0.0000000  0.6508444  3
    497    510    492    503     1  180.0000771  0.4184000  2
    497    510    492    503     1  0.0000000  1.6024720  3
    501    497    496    515     1  0.0000000  0.6508444  3
    502    495    493    513     1  0.0000000  4.9162000  2
    502    495    493    513     1  0.0000000  0.6024960  3
    502    495    496    515     1  0.0000000  0.6508444  3
    503    492    493    513     1  0.0000000  0.6508444  3
    508    503    492    510     1  0.0000000  4.9162000  2
    508    503    492    510     1  0.0000000  0.6024960  3
    510    492    493    513     1  0.0000000  4.9162000  2
    510    492    493    513     1  0.0000000  0.6024960  3
    510    497    496    515     1  0.0000000  0.6508444  3
    517    519    521    525     1  0.0000000  0.6508444  3
    519    521    525    526     1  0.0000000  0.6508444  3
    519    521    525    527     1  0.0000000  0.6508444  3
    521    525    526    537     1  0.0000000  0.6508444  3
    521    525    527    529     1  0.0000000  0.6508444  3
    525    526    537    540     1  0.0000000  0.6508444  3
    525    527    529    533     1  0.0000000  0.6508444  3
    526    537    540    541     1  180.0000771  0.0000000  2
    526    537    540    589     1  180.0000771  0.0000000  2
    526    525    527    529     1  0.0000000  0.6508444  3
    527    529    533    534     1  180.0000771  0.0000000  2
    527    529    533    565     1  180.0000771  0.0000000  2
    527    525    526    537     1  0.0000000  0.6508444  3
    529    533    565    546     1  180.0000771  6.0668000  2
    529    533    565    546     1  180.0000771  1.4644000  4
    533    565    546    547     1  0.0000000  1.2552000  3
    533    565    546    545     1  0.0000000  1.2552000  3
    534    533    565    546     1  180.0000771  6.0668000  2
    534    533    565    546     1  180.0000771  1.4644000  4
    537    540    589    570     1  180.0000771  6.0668000  2
    537    540    589    570     1  180.0000771  1.4644000  4
    540    589    570    571     1  0.0000000  1.2552000  3
    540    589    570    569     1  0.0000000  1.2552000  3
    541    540    589    570     1  180.0000771  6.0668000  2
    541    540    589    570     1  180.0000771  1.4644000  4
    542    543    545    546     1  180.0000771  0.8368000  1
    542    543    545    546     1  180.0000771  1.0460000  2
    542    543    545    546     1  0.0000000  0.7531200  3
    542    543    545    552     1  0.0000000  0.6508444  3
    542    560    547    551     1  0.0000000  1.6038667  3
    542    560    547    546     1  180.0000771  0.4184000  2
    542    560    547    546     1  0.0000000  1.6024720  3
    543    545    546    547     1  180.0000771  0.8368000  1
    543    545    546    547     1  180.0000771  1.0460000  2
    543    545    546    547     1  0.0000000  0.7531200  3
    543    545    546    565     1  0.0000000  0.6508444  3
    543    542    553    558     1  0.0000000  0.6508444  3
    543    542    560    547     1  180.0000771  0.4184000  2
    543    542    560    547     1  0.0000000  1.6024720  3
    545    546    547    551     1  0.0000000  0.6508444  3
    545    546    547    560     1  0.0000000  0.6508444  3
    545    543    542    553     1  180.0000771  0.8368000  1
    545    543    542    553     1  180.0000771  1.0460000  2
    545    543    542    553     1  0.0000000  0.7531200  3
    545    543    542    560     1  0.0000000  0.6508444  3
    546    545    543    563     1  0.0000000  0.6508444  3
    547    560    542    553     1  180.0000771  0.4184000  2
    547    560    542    553     1  0.0000000  1.6024720  3
    547    546    545    552     1  0.0000000  0.6508444  3
    551    547    546    565     1  0.0000000  0.6508444  3
    552    545    546    565     1  0.0000000  0.6508444  3
    552    545    543    563     1  0.0000000  4.9162000  2
    552    545    543    563     1  0.0000000  0.6024960  3
    553    542    543    563     1  0.0000000  0.6508444  3
    558    553    542    560     1  0.0000000  4.9162000  2
    558    553    542    560     1  0.0000000  0.6024960  3
    560    547    546    565     1  0.0000000  0.6508444  3
    560    542    543    563     1  0.0000000  4.9162000  2
    560    542    543    563     1  0.0000000  0.6024960  3
    566    567    569    570     1  180.0000771  0.8368000  1
    566    567    569    570     1  180.0000771  1.0460000  2
    566    567    569    570     1  0.0000000  0.7531200  3
    566    567    569    576     1  0.0000000  0.6508444  3
    566    584    571    575     1  0.0000000  1.6038667  3
    566    584    571    570     1  180.0000771  0.4184000  2
    566    584    571    570     1  0.0000000  1.6024720  3
    567    569    570    571     1  180.0000771  0.8368000  1
    567    569    570    571     1  180.0000771  1.0460000  2
    567    569    570    571     1  0.0000000  0.7531200  3
    567    569    570    589     1  0.0000000  0.6508444  3
    567    566    577    582     1  0.0000000  0.6508444  3
    567    566    584    571     1  180.0000771  0.4184000  2
    567    566    584    571     1  0.0000000  1.6024720  3
    569    570    571    575     1  0.0000000  0.6508444  3
    569    570    571    584     1  0.0000000  0.6508444  3
    569    567    566    577     1  180.0000771  0.8368000  1
    569    567    566    577     1  180.0000771  1.0460000  2
    569    567    566    577     1  0.0000000  0.7531200  3
    569    567    566    584     1  0.0000000  0.6508444  3
    570    569    567    587     1  0.0000000  0.6508444  3
    571    584    566    577     1  180.0000771  0.4184000  2
    571    584    566    577     1  0.0000000  1.6024720  3
    571    570    569    576     1  0.0000000  0.6508444  3
    575    571    570    589     1  0.0000000  0.6508444  3
    576    569    570    589     1  0.0000000  0.6508444  3
    576    569    567    587     1  0.0000000  4.9162000  2
    576    569    567    587     1  0.0000000  0.6024960  3
    577    566    567    587     1  0.0000000  0.6508444  3
    582    577    566    584     1  0.0000000  4.9162000  2
    582    577    566    584     1  0.0000000  0.6024960  3
    584    571    570    589     1  0.0000000  0.6508444  3
    584    566    567    587     1  0.0000000  4.9162000  2
    584    566    567    587     1  0.0000000  0.6024960  3
    591    593    595    599     1  0.0000000  0.6508444  3
    593    595    599    600     1  0.0000000  0.6508444  3
    593    595    599    601     1  0.0000000  0.6508444  3
    595    599    600    611     1  0.0000000  0.6508444  3
    595    599    601    603     1  0.0000000  0.6508444  3
    599    600    611    614     1  0.0000000  0.6508444  3
    599    601    603    607     1  0.0000000  0.6508444  3
    600    599    601    603     1  0.0000000  0.6508444  3
    600    611    614    615     1  180.0000771  0.0000000  2
    600    611    614    663     1  180.0000771  0.0000000  2
    601    599    600    611     1  0.0000000  0.6508444  3
    601    603    607    608     1  180.0000771  0.0000000  2
    601    603    607    639     1  180.0000771  0.0000000  2
    603    607    639    620     1  180.0000771  6.0668000  2
    603    607    639    620     1  180.0000771  1.4644000  4
    607    639    620    619     1  0.0000000  1.2552000  3
    607    639    620    621     1  0.0000000  1.2552000  3
    608    607    639    620     1  180.0000771  6.0668000  2
    608    607    639    620     1  180.0000771  1.4644000  4
    611    614    663    644     1  180.0000771  6.0668000  2
    611    614    663    644     1  180.0000771  1.4644000  4
    614    663    644    643     1  0.0000000  1.2552000  3
    614    663    644    645     1  0.0000000  1.2552000  3
    615    614    663    644     1  180.0000771  6.0668000  2
    615    614    663    644     1  180.0000771  1.4644000  4
    616    617    619    620     1  180.0000771  0.8368000  1
    616    617    619    620     1  180.0000771  1.0460000  2
    616    617    619    620     1  0.0000000  0.7531200  3
    616    617    619    626     1  0.0000000  0.6508444  3
    616    634    621    620     1  180.0000771  0.4184000  2
    616    634    621    620     1  0.0000000  1.6024720  3
    616    634    621    625     1  0.0000000  1.6038667  3
    617    616    627    632     1  0.0000000  0.6508444  3
    617    616    634    621     1  180.0000771  0.4184000  2
    617    616    634    621     1  0.0000000  1.6024720  3
    617    619    620    621     1  180.0000771  0.8368000  1
    617    619    620    621     1  180.0000771  1.0460000  2
    617    619    620    621     1  0.0000000  0.7531200  3
    617    619    620    639     1  0.0000000  0.6508444  3
    619    617    616    627     1  180.0000771  0.8368000  1
    619    617    616    627     1  180.0000771  1.0460000  2
    619    617    616    627     1  0.0000000  0.7531200  3
    619    617    616    634     1  0.0000000  0.6508444  3
    619    620    621    625     1  0.0000000  0.6508444  3
    619    620    621    634     1  0.0000000  0.6508444  3
    620    619    617    637     1  0.0000000  0.6508444  3
    621    620    619    626     1  0.0000000  0.6508444  3
    621    634    616    627     1  180.0000771  0.4184000  2
    621    634    616    627     1  0.0000000  1.6024720  3
    625    621    620    639     1  0.0000000  0.6508444  3
    626    619    617    637     1  0.0000000  4.9162000  2
    626    619    617    637     1  0.0000000  0.6024960  3
    626    619    620    639     1  0.0000000  0.6508444  3
    627    616    617    637     1  0.0000000  0.6508444  3
    632    627    616    634     1  0.0000000  4.9162000  2
    632    627    616    634     1  0.0000000  0.6024960  3
    634    616    617    637     1  0.0000000  4.9162000  2
    634    616    617    637     1  0.0000000  0.6024960  3
    634    621    620    639     1  0.0000000  0.6508444  3
    640    641    643    644     1  180.0000771  0.8368000  1
    640    641    643    644     1  180.0000771  1.0460000  2
    640    641    643    644     1  0.0000000  0.7531200  3
    640    641    643    650     1  0.0000000  0.6508444  3
    640    658    645    644     1  180.0000771  0.4184000  2
    640    658    645    644     1  0.0000000  1.6024720  3
    640    658    645    649     1  0.0000000  1.6038667  3
    641    640    651    656     1  0.0000000  0.6508444  3
    641    640    658    645     1  180.0000771  0.4184000  2
    641    640    658    645     1  0.0000000  1.6024720  3
    641    643    644    645     1  180.0000771  0.8368000  1
    641    643    644    645     1  180.0000771  1.0460000  2
    641    643    644    645     1  0.0000000  0.7531200  3
    641    643    644    663     1  0.0000000  0.6508444  3
    643    641    640    651     1  180.0000771  0.8368000  1
    643    641    640    651     1  180.0000771  1.0460000  2
    643    641    640    651     1  0.0000000  0.7531200  3
    643    641    640    658     1  0.0000000  0.6508444  3
    643    644    645    649     1  0.0000000  0.6508444  3
    643    644    645    658     1  0.0000000  0.6508444  3
    644    643    641    661     1  0.0000000  0.6508444  3
    645    644    643    650     1  0.0000000  0.6508444  3
    645    658    640    651     1  180.0000771  0.4184000  2
    645    658    640    651     1  0.0000000  1.6024720  3
    649    645    644    663     1  0.0000000  0.6508444  3
    650    643    641    661     1  0.0000000  4.9162000  2
    650    643    641    661     1  0.0000000  0.6024960  3
    650    643    644    663     1  0.0000000  0.6508444  3
    651    640    641    661     1  0.0000000  0.6508444  3
    656    651    640    658     1  0.0000000  4.9162000  2
    656    651    640    658     1  0.0000000  0.6024960  3
    658    640    641    661     1  0.0000000  4.9162000  2
    658    640    641    661     1  0.0000000  0.6024960  3
    658    645    644    663     1  0.0000000  0.6508444  3
    665    667    669    673     1  0.0000000  0.6508444  3
    667    669    673    674     1  0.0000000  0.6508444  3
    667    669    673    675     1  0.0000000  0.6508444  3
    669    673    674    685     1  0.0000000  0.6508444  3
    669    673    675    677     1  0.0000000  0.6508444  3
    673    674    685    688     1  0.0000000  0.6508444  3
    673    675    677    681     1  0.0000000  0.6508444  3
    674    685    688    689     1  180.0000771  0.0000000  2
    674    685    688    737     1  180.0000771  0.0000000  2
    674    673    675    677     1  0.0000000  0.6508444  3
    675    677    681    682     1  180.0000771  0.0000000  2
    675    677    681    713     1  180.0000771  0.0000000  2
    675    673    674    685     1  0.0000000  0.6508444  3
    677    681    713    694     1  180.0000771  6.0668000  2
    677    681    713    694     1  180.0000771  1.4644000  4
    681    713    694    695     1  0.0000000  1.2552000  3
    681    713    694    693     1  0.0000000  1.2552000  3
    682    681    713    694     1  180.0000771  6.0668000  2
    682    681    713    694     1  180.0000771  1.4644000  4
    685    688    737    718     1  180.0000771  6.0668000  2
    685    688    737    718     1  180.0000771  1.4644000  4
    688    737    718    719     1  0.0000000  1.2552000  3
    688    737    718    717     1  0.0000000  1.2552000  3
    689    688    737    718     1  180.0000771  6.0668000  2
    689    688    737    718     1  180.0000771  1.4644000  4
    690    691    693    694     1  180.0000771  0.8368000  1
    690    691    693    694     1  180.0000771  1.0460000  2
    690    691    693    694     1  0.0000000  0.7531200  3
    690    691    693    700     1  0.0000000  0.6508444  3
    690    708    695    699     1  0.0000000  1.6038667  3
    690    708    695    694     1  180.0000771  0.4184000  2
    690    708    695    694     1  0.0000000  1.6024720  3
    691    693    694    695     1  180.0000771  0.8368000  1
    691    693    694    695     1  180.0000771  1.0460000  2
    691    693    694    695     1  0.0000000  0.7531200  3
    691    693    694    713     1  0.0000000  0.6508444  3
    691    690    701    706     1  0.0000000  0.6508444  3
    691    690    708    695     1  180.0000771  0.4184000  2
    691    690    708    695     1  0.0000000  1.6024720  3
    693    694    695    699     1  0.0000000  0.6508444  3
    693    694    695    708     1  0.0000000  0.6508444  3
    693    691    690    701     1  180.0000771  0.8368000  1
    693    691    690    701     1  180.0000771  1.0460000  2
    693    691    690    701     1  0.0000000  0.7531200  3
    693    691    690    708     1  0.0000000  0.6508444  3
    694    693    691    711     1  0.0000000  0.6508444  3
    695    708    690    701     1  180.0000771  0.4184000  2
    695    708    690    701     1  0.0000000  1.6024720  3
    695    694    693    700     1  0.0000000  0.6508444  3
    699    695    694    713     1  0.0000000  0.6508444  3
    700    693    694    713     1  0.0000000  0.6508444  3
    700    693    691    711     1  0.0000000  4.9162000  2
    700    693    691    711     1  0.0000000  0.6024960  3
    701    690    691    711     1  0.0000000  0.6508444  3
    706    701    690    708     1  0.0000000  4.9162000  2
    706    701    690    708     1  0.0000000  0.6024960  3
    708    695    694    713     1  0.0000000  0.6508444  3
    708    690    691    711     1  0.0000000  4.9162000  2
    708    690    691    711     1  0.0000000  0.6024960  3
    714    715    717    718     1  180.0000771  0.8368000  1
    714    715    717    718     1  180.0000771  1.0460000  2
    714    715    717    718     1  0.0000000  0.7531200  3
    714    715    717    724     1  0.0000000  0.6508444  3
    714    732    719    723     1  0.0000000  1.6038667  3
    714    732    719    718     1  180.0000771  0.4184000  2
    714    732    719    718     1  0.0000000  1.6024720  3
    715    717    718    719     1  180.0000771  0.8368000  1
    715    717    718    719     1  180.0000771  1.0460000  2
    715    717    718    719     1  0.0000000  0.7531200  3
    715    717    718    737     1  0.0000000  0.6508444  3
    715    714    725    730     1  0.0000000  0.6508444  3
    715    714    732    719     1  180.0000771  0.4184000  2
    715    714    732    719     1  0.0000000  1.6024720  3
    717    718    719    723     1  0.0000000  0.6508444  3
    717    718    719    732     1  0.0000000  0.6508444  3
    717    715    714    725     1  180.0000771  0.8368000  1
    717    715    714    725     1  180.0000771  1.0460000  2
    717    715    714    725     1  0.0000000  0.7531200  3
    717    715    714    732     1  0.0000000  0.6508444  3
    718    717    715    735     1  0.0000000  0.6508444  3
    719    732    714    725     1  180.0000771  0.4184000  2
    719    732    714    725     1  0.0000000  1.6024720  3
    719    718    717    724     1  0.0000000  0.6508444  3
    723    719    718    737     1  0.0000000  0.6508444  3
    724    717    718    737     1  0.0000000  0.6508444  3
    724    717    715    735     1  0.0000000  4.9162000  2
    724    717    715    735     1  0.0000000  0.6024960  3
    725    714    715    735     1  0.0000000  0.6508444  3
    730    725    714    732     1  0.0000000  4.9162000  2
    730    725    714    732     1  0.0000000  0.6024960  3
    732    719    718    737     1  0.0000000  0.6508444  3
    732    714    715    735     1  0.0000000  4.9162000  2
    732    714    715    735     1  0.0000000  0.6024960  3
      9     52     10     18     4  180.0000771  43.9320000  2
     11     78     12     17     4  180.0000771  43.9320000  2
     13    104     14     20     4  180.0000771  43.9320000  2
     15    130     16     19     4  180.0000771  43.9320000  2
     46    147     47     53     4  180.0000771  43.9320000  2
     48    221     49     54     4  180.0000771  43.9320000  2
     72    295     73     79     4  180.0000771  43.9320000  2
     74    369     75     80     4  180.0000771  43.9320000  2
     98    443     99    105     4  180.0000771  43.9320000  2
    100    517    101    106     4  180.0000771  43.9320000  2
    124    591    125    131     4  180.0000771  43.9320000  2
    126    665    127    132     4  180.0000771  43.9320000  2
    159    195    163    164     4  180.0000771  43.9320000  2
    167    219    170    171     4  180.0000771  43.9320000  2
    233    269    237    238     4  180.0000771  43.9320000  2
    241    293    244    245     4  180.0000771  43.9320000  2
    307    343    311    312     4  180.0000771  43.9320000  2
    315    367    318    319     4  180.0000771  43.9320000  2
    381    417    385    386     4  180.0000771  43.9320000  2
    389    441    392    393     4  180.0000771  43.9320000  2
    455    491    459    460     4  180.0000771  43.9320000  2
    463    515    466    467     4  180.0000771  43.9320000  2
    529    565    533    534     4  180.0000771  43.9320000  2
    537    589    540    541     4  180.0000771  43.9320000  2
    603    639    607    608     4  180.0000771  43.9320000  2
    611    663    614    615     4  180.0000771  43.9320000  2
    677    713    681    682     4  180.0000771  43.9320000  2
    685    737    688    689     4  180.0000771  43.9320000  2
      1      2      3     23     1  0.0000000  0.6508444  3
      1      2      3     24     1  0.0000000  0.6508444  3
      1      7     13     37     1  0.0000000  0.6508444  3
      1      7     13     38     1  0.0000000  0.6508444  3
      1      8     15     39     1  0.0000000  0.6508444  3
      1      8     15     40     1  0.0000000  0.6508444  3
      2      1      7     29     1  0.0000000  0.6508444  3
      2      1      7     30     1  0.0000000  0.6508444  3
      2      1      8     31     1  0.0000000  0.6508444  3
      2      1      8     32     1  0.0000000  0.6508444  3
      2      3      4     42     1  0.0000000  0.6508444  3
     41      1      2      3     1  0.0000000  0.6508444  3
      3      4      5     25     1  0.0000000  0.6508444  3
      3      4      5     26     1  0.0000000  0.6508444  3
      3      4      6     27     1  0.0000000  0.6508444  3
      3      4      6     28     1  0.0000000  0.6508444  3
      4      3      2     21     1  0.0000000  0.6508444  3
      4      3      2     22     1  0.0000000  0.6508444  3
      4      5     11     35     1  0.0000000  0.6508444  3
      4      5     11     36     1  0.0000000  0.6508444  3
      4      6      9     33     1  0.0000000  0.6508444  3
      4      6      9     34     1  0.0000000  0.6508444  3
      5      4      3     23     1  0.0000000  0.6508444  3
      5      4      3     24     1  0.0000000  0.6508444  3
      5      4      6     27     1  0.0000000  0.6508444  3
      5      4      6     28     1  0.0000000  0.6508444  3
      6      4      3     23     1  0.0000000  0.6508444  3
      6      4      3     24     1  0.0000000  0.6508444  3
      6      4      5     25     1  0.0000000  0.6508444  3
      6      4      5     26     1  0.0000000  0.6508444  3
      7      1      2     21     1  0.0000000  0.6508444  3
      7      1      2     22     1  0.0000000  0.6508444  3
      7      1      8     31     1  0.0000000  0.6508444  3
      7      1      8     32     1  0.0000000  0.6508444  3
      8      1      2     21     1  0.0000000  0.6508444  3
      8      1      2     22     1  0.0000000  0.6508444  3
      8      1      7     29     1  0.0000000  0.6508444  3
      8      1      7     30     1  0.0000000  0.6508444  3
      9      6      4     42     1  0.0000000  0.6508444  3
      9     10     52     67     1  180.0000771  10.4600000  2
     10      9      6     27     1  0.0000000  0.6508444  3
     10      9      6     28     1  0.0000000  0.6508444  3
     10     52     51     65     1  0.0000000  0.0000000  2
     10     52     51     66     1  0.0000000  0.0000000  2
     11      5      4     42     1  0.0000000  0.6508444  3
     11     12     78     93     1  180.0000771  10.4600000  2
     12     11      5     25     1  0.0000000  0.6508444  3
     12     11      5     26     1  0.0000000  0.6508444  3
     12     78     77     91     1  0.0000000  0.0000000  2
     12     78     77     92     1  0.0000000  0.0000000  2
     41      1      7     13     1  0.0000000  0.6508444  3
     13     14    104    119     1  180.0000771  10.4600000  2
     14     13      7     29     1  0.0000000  0.6508444  3
     14     13      7     30     1  0.0000000  0.6508444  3
     14    104    103    117     1  0.0000000  0.0000000  2
     14    104    103    118     1  0.0000000  0.0000000  2
     41      1      8     15     1  0.0000000  0.6508444  3
     15     16    130    145     1  180.0000771  10.4600000  2
     16     15      8     31     1  0.0000000  0.6508444  3
     16     15      8     32     1  0.0000000  0.6508444  3
     16    130    129    143     1  0.0000000  0.0000000  2
     16    130    129    144     1  0.0000000  0.0000000  2
     17     12     11     35     1  0.0000000  3.3472000  1
     17     12     11     35     1  0.0000000  0.0000000  2
     17     12     11     35     1  180.0000771  0.3347200  3
     17     12     11     36     1  0.0000000  3.3472000  1
     17     12     11     36     1  0.0000000  0.0000000  2
     17     12     11     36     1  180.0000771  0.3347200  3
     17     12     78     93     1  0.0000000  8.3680000  1
     17     12     78     93     1  180.0000771  10.4600000  2
     18     10      9     33     1  0.0000000  3.3472000  1
     18     10      9     33     1  0.0000000  0.0000000  2
     18     10      9     33     1  180.0000771  0.3347200  3
     18     10      9     34     1  0.0000000  3.3472000  1
     18     10      9     34     1  0.0000000  0.0000000  2
     18     10      9     34     1  180.0000771  0.3347200  3
     18     10     52     67     1  0.0000000  8.3680000  1
     18     10     52     67     1  180.0000771  10.4600000  2
     19     16     15     39     1  0.0000000  3.3472000  1
     19     16     15     39     1  0.0000000  0.0000000  2
     19     16     15     39     1  180.0000771  0.3347200  3
     19     16     15     40     1  0.0000000  3.3472000  1
     19     16     15     40     1  0.0000000  0.0000000  2
     19     16     15     40     1  180.0000771  0.3347200  3
     19     16    130    145     1  0.0000000  8.3680000  1
     19     16    130    145     1  180.0000771  10.4600000  2
     20     14     13     37     1  0.0000000  3.3472000  1
     20     14     13     37     1  0.0000000  0.0000000  2
     20     14     13     37     1  180.0000771  0.3347200  3
     20     14     13     38     1  0.0000000  3.3472000  1
     20     14     13     38     1  0.0000000  0.0000000  2
     20     14     13     38     1  180.0000771  0.3347200  3
     20     14    104    119     1  0.0000000  8.3680000  1
     20     14    104    119     1  180.0000771  10.4600000  2
     41      1      2     21     1  0.0000000  0.6508444  3
     21      2      3     23     1  0.0000000  0.6508444  3
     21      2      3     24     1  0.0000000  0.6508444  3
     41      1      2     22     1  0.0000000  0.6508444  3
     22      2      3     23     1  0.0000000  0.6508444  3
     22      2      3     24     1  0.0000000  0.6508444  3
     23      3      4     42     1  0.0000000  0.6508444  3
     24      3      4     42     1  0.0000000  0.6508444  3
     25      5      4     42     1  0.0000000  0.6508444  3
     25      5     11     35     1  0.0000000  0.6508444  3
     25      5     11     36     1  0.0000000  0.6508444  3
     26      5      4     42     1  0.0000000  0.6508444  3
     26      5     11     35     1  0.0000000  0.6508444  3
     26      5     11     36     1  0.0000000  0.6508444  3
     27      6      4     42     1  0.0000000  0.6508444  3
     27      6      9     33     1  0.0000000  0.6508444  3
     27      6      9     34     1  0.0000000  0.6508444  3
     28      6      4     42     1  0.0000000  0.6508444  3
     28      6      9     33     1  0.0000000  0.6508444  3
     28      6      9     34     1  0.0000000  0.6508444  3
     41      1      7     29     1  0.0000000  0.6508444  3
     29      7     13     37     1  0.0000000  0.6508444  3
     29      7     13     38     1  0.0000000  0.6508444  3
     41      1      7     30     1  0.0000000  0.6508444  3
     30      7     13     37     1  0.0000000  0.6508444  3
     30      7     13     38     1  0.0000000  0.6508444  3
     41      1      8     31     1  0.0000000  0.6508444  3
     31      8     15     39     1  0.0000000  0.6508444  3
     31      8     15     40     1  0.0000000  0.6508444  3
     41      1      8     32     1  0.0000000  0.6508444  3
     32      8     15     39     1  0.0000000  0.6508444  3
     32      8     15     40     1  0.0000000  0.6508444  3
     33      9     10     52     1  180.0000771  0.0000000  2
     34      9     10     52     1  180.0000771  0.0000000  2
     35     11     12     78     1  180.0000771  0.0000000  2
     36     11     12     78     1  180.0000771  0.0000000  2
     37     13     14    104     1  180.0000771  0.0000000  2
     38     13     14    104     1  180.0000771  0.0000000  2
     39     15     16    130     1  180.0000771  0.0000000  2
     40     15     16    130     1  180.0000771  0.0000000  2
     43     44     46     59     1  0.0000000  0.6508444  3
     43     44     46     60     1  0.0000000  0.6508444  3
     43     45     48     61     1  0.0000000  0.6508444  3
     43     45     48     62     1  0.0000000  0.6508444  3
     43     50     51     65     1  0.0000000  0.6508444  3
     43     50     51     66     1  0.0000000  0.6508444  3
     44     43     45     57     1  0.0000000  0.6508444  3
     44     43     45     58     1  0.0000000  0.6508444  3
     44     43     50     63     1  0.0000000  0.6508444  3
     44     43     50     64     1  0.0000000  0.6508444  3
     45     43     44     55     1  0.0000000  0.6508444  3
     45     43     44     56     1  0.0000000  0.6508444  3
     45     43     50     63     1  0.0000000  0.6508444  3
     45     43     50     64     1  0.0000000  0.6508444  3
     46     44     43     68     1  0.0000000  0.6508444  3
     46     47    147    148     1  180.0000771  10.4600000  2
     47     46     44     55     1  0.0000000  0.6508444  3
     47     46     44     56     1  0.0000000  0.6508444  3
     47    147    149    150     1  0.0000000  0.0000000  2
     47    147    149    152     1  0.0000000  0.0000000  2
     48     45     43     68     1  0.0000000  0.6508444  3
     48     49    221    222     1  180.0000771  10.4600000  2
     49     48     45     57     1  0.0000000  0.6508444  3
     49     48     45     58     1  0.0000000  0.6508444  3
     49    221    223    224     1  0.0000000  0.0000000  2
     49    221    223    226     1  0.0000000  0.0000000  2
     50     43     44     55     1  0.0000000  0.6508444  3
     50     43     44     56     1  0.0000000  0.6508444  3
     50     43     45     57     1  0.0000000  0.6508444  3
     50     43     45     58     1  0.0000000  0.6508444  3
     50     51     52     67     1  0.0000000  0.0000000  2
     51     50     43     68     1  0.0000000  0.6508444  3
     52     51     50     63     1  0.0000000  0.6508444  3
     52     51     50     64     1  0.0000000  0.6508444  3
     53     47     46     59     1  0.0000000  3.3472000  1
     53     47     46     59     1  0.0000000  0.0000000  2
     53     47     46     59     1  180.0000771  0.3347200  3
     53     47     46     60     1  0.0000000  3.3472000  1
     53     47     46     60     1  0.0000000  0.0000000  2
     53     47     46     60     1  180.0000771  0.3347200  3
     53     47    147    148     1  0.0000000  8.3680000  1
     53     47    147    148     1  180.0000771  10.4600000  2
     54     49     48     61     1  0.0000000  3.3472000  1
     54     49     48     61     1  0.0000000  0.0000000  2
     54     49     48     61     1  180.0000771  0.3347200  3
     54     49     48     62     1  0.0000000  3.3472000  1
     54     49     48     62     1  0.0000000  0.0000000  2
     54     49     48     62     1  180.0000771  0.3347200  3
     54     49    221    222     1  0.0000000  8.3680000  1
     54     49    221    222     1  180.0000771  10.4600000  2
     55     44     43     68     1  0.0000000  0.6508444  3
     55     44     46     59     1  0.0000000  0.6508444  3
     55     44     46     60     1  0.0000000  0.6508444  3
     56     44     43     68     1  0.0000000  0.6508444  3
     56     44     46     59     1  0.0000000  0.6508444  3
     56     44     46     60     1  0.0000000  0.6508444  3
     57     45     43     68     1  0.0000000  0.6508444  3
     57     45     48     61     1  0.0000000  0.6508444  3
     57     45     48     62     1  0.0000000  0.6508444  3
     58     45     43     68     1  0.0000000  0.6508444  3
     58     45     48     61     1  0.0000000  0.6508444  3
     58     45     48     62     1  0.0000000  0.6508444  3
     59     46     47    147     1  180.0000771  0.0000000  2
     60     46     47    147     1  180.0000771  0.0000000  2
     61     48     49    221     1  180.0000771  0.0000000  2
     62     48     49    221     1  180.0000771  0.0000000  2
     63     50     43     68     1  0.0000000  0.6508444  3
     63     50     51     65     1  0.0000000  0.6508444  3
     63     50     51     66     1  0.0000000  0.6508444  3
     64     50     43     68     1  0.0000000  0.6508444  3
     64     50     51     65     1  0.0000000  0.6508444  3
     64     50     51     66     1  0.0000000  0.6508444  3
     65     51     52     67     1  0.0000000  0.0000000  2
     66     51     52     67     1  0.0000000  0.0000000  2
     69     70     72     85     1  0.0000000  0.6508444  3
     69     70     72     86     1  0.0000000  0.6508444  3
     69     71     74     87     1  0.0000000  0.6508444  3
     69     71     74     88     1  0.0000000  0.6508444  3
     69     76     77     91     1  0.0000000  0.6508444  3
     69     76     77     92     1  0.0000000  0.6508444  3
     70     69     71     83     1  0.0000000  0.6508444  3
     70     69     71     84     1  0.0000000  0.6508444  3
     70     69     76     89     1  0.0000000  0.6508444  3
     70     69     76     90     1  0.0000000  0.6508444  3
     71     69     70     81     1  0.0000000  0.6508444  3
     71     69     70     82     1  0.0000000  0.6508444  3
     71     69     76     89     1  0.0000000  0.6508444  3
     71     69     76     90     1  0.0000000  0.6508444  3
     72     70     69     94     1  0.0000000  0.6508444  3
     72     73    295    296     1  180.0000771  10.4600000  2
     73     72     70     81     1  0.0000000  0.6508444  3
     73     72     70     82     1  0.0000000  0.6508444  3
     73    295    297    298     1  0.0000000  0.0000000  2
     73    295    297    300     1  0.0000000  0.0000000  2
     74     71     69     94     1  0.0000000  0.6508444  3
     74     75    369    370     1  180.0000771  10.4600000  2
     75     74     71     83     1  0.0000000  0.6508444  3
     75     74     71     84     1  0.0000000  0.6508444  3
     75    369    371    372     1  0.0000000  0.0000000  2
     75    369    371    374     1  0.0000000  0.0000000  2
     76     69     70     81     1  0.0000000  0.6508444  3
     76     69     70     82     1  0.0000000  0.6508444  3
     76     69     71     83     1  0.0000000  0.6508444  3
     76     69     71     84     1  0.0000000  0.6508444  3
     76     77     78     93     1  0.0000000  0.0000000  2
     77     76     69     94     1  0.0000000  0.6508444  3
     78     77     76     89     1  0.0000000  0.6508444  3
     78     77     76     90     1  0.0000000  0.6508444  3
     79     73     72     85     1  0.0000000  3.3472000  1
     79     73     72     85     1  0.0000000  0.0000000  2
     79     73     72     85     1  180.0000771  0.3347200  3
     79     73     72     86     1  0.0000000  3.3472000  1
     79     73     72     86     1  0.0000000  0.0000000  2
     79     73     72     86     1  180.0000771  0.3347200  3
     79     73    295    296     1  0.0000000  8.3680000  1
     79     73    295    296     1  180.0000771  10.4600000  2
     80     75     74     87     1  0.0000000  3.3472000  1
     80     75     74     87     1  0.0000000  0.0000000  2
     80     75     74     87     1  180.0000771  0.3347200  3
     80     75     74     88     1  0.0000000  3.3472000  1
     80     75     74     88     1  0.0000000  0.0000000  2
     80     75     74     88     1  180.0000771  0.3347200  3
     80     75    369    370     1  0.0000000  8.3680000  1
     80     75    369    370     1  180.0000771  10.4600000  2
     81     70     69     94     1  0.0000000  0.6508444  3
     81     70     72     85     1  0.0000000  0.6508444  3
     81     70     72     86     1  0.0000000  0.6508444  3
     82     70     69     94     1  0.0000000  0.6508444  3
     82     70     72     85     1  0.0000000  0.6508444  3
     82     70     72     86     1  0.0000000  0.6508444  3
     83     71     69     94     1  0.0000000  0.6508444  3
     83     71     74     87     1  0.0000000  0.6508444  3
     83     71     74     88     1  0.0000000  0.6508444  3
     84     71     69     94     1  0.0000000  0.6508444  3
     84     71     74     87     1  0.0000000  0.6508444  3
     84     71     74     88     1  0.0000000  0.6508444  3
     85     72     73    295     1  180.0000771  0.0000000  2
     86     72     73    295     1  180.0000771  0.0000000  2
     87     74     75    369     1  180.0000771  0.0000000  2
     88     74     75    369     1  180.0000771  0.0000000  2
     89     76     69     94     1  0.0000000  0.6508444  3
     89     76     77     91     1  0.0000000  0.6508444  3
     89     76     77     92     1  0.0000000  0.6508444  3
     90     76     69     94     1  0.0000000  0.6508444  3
     90     76     77     91     1  0.0000000  0.6508444  3
     90     76     77     92     1  0.0000000  0.6508444  3
     91     77     78     93     1  0.0000000  0.0000000  2
     92     77     78     93     1  0.0000000  0.0000000  2
     95     96     98    111     1  0.0000000  0.6508444  3
     95     96     98    112     1  0.0000000  0.6508444  3
     95     97    100    113     1  0.0000000  0.6508444  3
     95     97    100    114     1  0.0000000  0.6508444  3
     95    102    103    117     1  0.0000000  0.6508444  3
     95    102    103    118     1  0.0000000  0.6508444  3
     96     95     97    109     1  0.0000000  0.6508444  3
     96     95     97    110     1  0.0000000  0.6508444  3
     96     95    102    115     1  0.0000000  0.6508444  3
     96     95    102    116     1  0.0000000  0.6508444  3
     97     95     96    107     1  0.0000000  0.6508444  3
     97     95     96    108     1  0.0000000  0.6508444  3
     97     95    102    115     1  0.0000000  0.6508444  3
     97     95    102    116     1  0.0000000  0.6508444  3
     98     96     95    120     1  0.0000000  0.6508444  3
     98     99    443    444     1  180.0000771  10.4600000  2
     99     98     96    107     1  0.0000000  0.6508444  3
     99     98     96    108     1  0.0000000  0.6508444  3
     99    443    445    446     1  0.0000000  0.0000000  2
     99    443    445    448     1  0.0000000  0.0000000  2
    100     97     95    120     1  0.0000000  0.6508444  3
    100    101    517    518     1  180.0000771  10.4600000  2
    101    100     97    109     1  0.0000000  0.6508444  3
    101    100     97    110     1  0.0000000  0.6508444  3
    101    517    519    520     1  0.0000000  0.0000000  2
    101    517    519    522     1  0.0000000  0.0000000  2
    102     95     96    107     1  0.0000000  0.6508444  3
    102     95     96    108     1  0.0000000  0.6508444  3
    102     95     97    109     1  0.0000000  0.6508444  3
    102     95     97    110     1  0.0000000  0.6508444  3
    102    103    104    119     1  0.0000000  0.0000000  2
    103    102     95    120     1  0.0000000  0.6508444  3
    104    103    102    115     1  0.0000000  0.6508444  3
    104    103    102    116     1  0.0000000  0.6508444  3
    105     99     98    111     1  0.0000000  3.3472000  1
    105     99     98    111     1  0.0000000  0.0000000  2
    105     99     98    111     1  180.0000771  0.3347200  3
    105     99     98    112     1  0.0000000  3.3472000  1
    105     99     98    112     1  0.0000000  0.0000000  2
    105     99     98    112     1  180.0000771  0.3347200  3
    105     99    443    444     1  0.0000000  8.3680000  1
    105     99    443    444     1  180.0000771  10.4600000  2
    106    101    100    113     1  0.0000000  3.3472000  1
    106    101    100    113     1  0.0000000  0.0000000  2
    106    101    100    113     1  180.0000771  0.3347200  3
    106    101    100    114     1  0.0000000  3.3472000  1
    106    101    100    114     1  0.0000000  0.0000000  2
    106    101    100    114     1  180.0000771  0.3347200  3
    106    101    517    518     1  0.0000000  8.3680000  1
    106    101    517    518     1  180.0000771  10.4600000  2
    107     96     95    120     1  0.0000000  0.6508444  3
    107     96     98    111     1  0.0000000  0.6508444  3
    107     96     98    112     1  0.0000000  0.6508444  3
    108     96     95    120     1  0.0000000  0.6508444  3
    108     96     98    111     1  0.0000000  0.6508444  3
    108     96     98    112     1  0.0000000  0.6508444  3
    109     97     95    120     1  0.0000000  0.6508444  3
    109     97    100    113     1  0.0000000  0.6508444  3
    109     97    100    114     1  0.0000000  0.6508444  3
    110     97     95    120     1  0.0000000  0.6508444  3
    110     97    100    113     1  0.0000000  0.6508444  3
    110     97    100    114     1  0.0000000  0.6508444  3
    111     98     99    443     1  180.0000771  0.0000000  2
    112     98     99    443     1  180.0000771  0.0000000  2
    113    100    101    517     1  180.0000771  0.0000000  2
    114    100    101    517     1  180.0000771  0.0000000  2
    115    102     95    120     1  0.0000000  0.6508444  3
    115    102    103    117     1  0.0000000  0.6508444  3
    115    102    103    118     1  0.0000000  0.6508444  3
    116    102     95    120     1  0.0000000  0.6508444  3
    116    102    103    117     1  0.0000000  0.6508444  3
    116    102    103    118     1  0.0000000  0.6508444  3
    117    103    104    119     1  0.0000000  0.0000000  2
    118    103    104    119     1  0.0000000  0.0000000  2
    121    122    124    137     1  0.0000000  0.6508444  3
    121    122    124    138     1  0.0000000  0.6508444  3
    121    123    126    139     1  0.0000000  0.6508444  3
    121    123    126    140     1  0.0000000  0.6508444  3
    121    128    129    143     1  0.0000000  0.6508444  3
    121    128    129    144     1  0.0000000  0.6508444  3
    122    121    123    135     1  0.0000000  0.6508444  3
    122    121    123    136     1  0.0000000  0.6508444  3
    122    121    128    141     1  0.0000000  0.6508444  3
    122    121    128    142     1  0.0000000  0.6508444  3
    123    121    122    133     1  0.0000000  0.6508444  3
    123    121    122    134     1  0.0000000  0.6508444  3
    123    121    128    141     1  0.0000000  0.6508444  3
    123    121    128    142     1  0.0000000  0.6508444  3
    124    122    121    146     1  0.0000000  0.6508444  3
    124    125    591    592     1  180.0000771  10.4600000  2
    125    124    122    133     1  0.0000000  0.6508444  3
    125    124    122    134     1  0.0000000  0.6508444  3
    125    591    593    594     1  0.0000000  0.0000000  2
    125    591    593    596     1  0.0000000  0.0000000  2
    126    123    121    146     1  0.0000000  0.6508444  3
    126    127    665    666     1  180.0000771  10.4600000  2
    127    126    123    135     1  0.0000000  0.6508444  3
    127    126    123    136     1  0.0000000  0.6508444  3
    127    665    667    668     1  0.0000000  0.0000000  2
    127    665    667    670     1  0.0000000  0.0000000  2
    128    121    122    133     1  0.0000000  0.6508444  3
    128    121    122    134     1  0.0000000  0.6508444  3
    128    121    123    135     1  0.0000000  0.6508444  3
    128    121    123    136     1  0.0000000  0.6508444  3
    128    129    130    145     1  0.0000000  0.0000000  2
    129    128    121    146     1  0.0000000  0.6508444  3
    130    129    128    141     1  0.0000000  0.6508444  3
    130    129    128    142     1  0.0000000  0.6508444  3
    131    125    124    137     1  0.0000000  3.3472000  1
    131    125    124    137     1  0.0000000  0.0000000  2
    131    125    124    137     1  180.0000771  0.3347200  3
    131    125    124    138     1  0.0000000  3.3472000  1
    131    125    124    138     1  0.0000000  0.0000000  2
    131    125    124    138     1  180.0000771  0.3347200  3
    131    125    591    592     1  0.0000000  8.3680000  1
    131    125    591    592     1  180.0000771  10.4600000  2
    132    127    126    139     1  0.0000000  3.3472000  1
    132    127    126    139     1  0.0000000  0.0000000  2
    132    127    126    139     1  180.0000771  0.3347200  3
    132    127    126    140     1  0.0000000  3.3472000  1
    132    127    126    140     1  0.0000000  0.0000000  2
    132    127    126    140     1  180.0000771  0.3347200  3
    132    127    665    666     1  0.0000000  8.3680000  1
    132    127    665    666     1  180.0000771  10.4600000  2
    133    122    121    146     1  0.0000000  0.6508444  3
    133    122    124    137     1  0.0000000  0.6508444  3
    133    122    124    138     1  0.0000000  0.6508444  3
    134    122    121    146     1  0.0000000  0.6508444  3
    134    122    124    137     1  0.0000000  0.6508444  3
    134    122    124    138     1  0.0000000  0.6508444  3
    135    123    121    146     1  0.0000000  0.6508444  3
    135    123    126    139     1  0.0000000  0.6508444  3
    135    123    126    140     1  0.0000000  0.6508444  3
    136    123    121    146     1  0.0000000  0.6508444  3
    136    123    126    139     1  0.0000000  0.6508444  3
    136    123    126    140     1  0.0000000  0.6508444  3
    137    124    125    591     1  180.0000771  0.0000000  2
    138    124    125    591     1  180.0000771  0.0000000  2
    139    126    127    665     1  180.0000771  0.0000000  2
    140    126    127    665     1  180.0000771  0.0000000  2
    141    128    121    146     1  0.0000000  0.6508444  3
    141    128    129    143     1  0.0000000  0.6508444  3
    141    128    129    144     1  0.0000000  0.6508444  3
    142    128    121    146     1  0.0000000  0.6508444  3
    142    128    129    143     1  0.0000000  0.6508444  3
    142    128    129    144     1  0.0000000  0.6508444  3
    143    129    130    145     1  0.0000000  0.0000000  2
    144    129    130    145     1  0.0000000  0.0000000  2
    147    149    151    153     1  0.0000000  0.6508444  3
    147    149    151    154     1  0.0000000  0.6508444  3
    148    147    149    151     1  0.0000000  0.0000000  2
    148    147    149    150     1  0.0000000  0.0000000  2
    148    147    149    152     1  0.0000000  0.0000000  2
    149    151    155    220     1  0.0000000  0.6508444  3
    150    149    151    155     1  0.0000000  0.6508444  3
    150    149    151    153     1  0.0000000  0.6508444  3
    150    149    151    154     1  0.0000000  0.6508444  3
    151    155    156    165     1  0.0000000  0.6508444  3
    151    155    156    166     1  0.0000000  0.6508444  3
    151    155    157    158     1  0.0000000  0.6508444  3
    151    155    157    160     1  0.0000000  0.6508444  3
    152    149    151    155     1  0.0000000  0.6508444  3
    152    149    151    153     1  0.0000000  0.6508444  3
    152    149    151    154     1  0.0000000  0.6508444  3
    153    151    155    156     1  0.0000000  0.6508444  3
    153    151    155    157     1  0.0000000  0.6508444  3
    153    151    155    220     1  0.0000000  0.6508444  3
    154    151    155    156     1  0.0000000  0.6508444  3
    154    151    155    157     1  0.0000000  0.6508444  3
    154    151    155    220     1  0.0000000  0.6508444  3
    155    156    167    168     1  0.0000000  0.6508444  3
    155    156    167    169     1  0.0000000  0.6508444  3
    155    157    159    161     1  0.0000000  0.6508444  3
    155    157    159    162     1  0.0000000  0.6508444  3
    156    155    157    158     1  0.0000000  0.6508444  3
    156    155    157    160     1  0.0000000  0.6508444  3
    157    155    156    165     1  0.0000000  0.6508444  3
    157    155    156    166     1  0.0000000  0.6508444  3
    158    157    155    220     1  0.0000000  0.6508444  3
    158    157    159    163     1  0.0000000  0.6508444  3
    158    157    159    161     1  0.0000000  0.6508444  3
    158    157    159    162     1  0.0000000  0.6508444  3
    159    157    155    220     1  0.0000000  0.6508444  3
    159    163    195    185     1  180.0000771  6.0668000  2
    159    163    195    185     1  180.0000771  1.4644000  4
    160    157    155    220     1  0.0000000  0.6508444  3
    160    157    159    163     1  0.0000000  0.6508444  3
    160    157    159    161     1  0.0000000  0.6508444  3
    160    157    159    162     1  0.0000000  0.6508444  3
    161    159    163    164     1  0.0000000  3.3472000  1
    161    159    163    164     1  0.0000000  0.0000000  2
    161    159    163    164     1  180.0000771  0.3347200  3
    161    159    163    195     1  180.0000771  0.0000000  2
    162    159    163    164     1  0.0000000  3.3472000  1
    162    159    163    164     1  0.0000000  0.0000000  2
    162    159    163    164     1  180.0000771  0.3347200  3
    162    159    163    195     1  180.0000771  0.0000000  2
    163    195    176    178     1  0.0000000  1.2552000  3
    164    163    195    185     1  180.0000771  6.0668000  2
    164    163    195    185     1  180.0000771  1.4644000  4
    165    156    155    220     1  0.0000000  0.6508444  3
    165    156    167    170     1  0.0000000  0.6508444  3
    165    156    167    168     1  0.0000000  0.6508444  3
    165    156    167    169     1  0.0000000  0.6508444  3
    166    156    155    220     1  0.0000000  0.6508444  3
    166    156    167    170     1  0.0000000  0.6508444  3
    166    156    167    168     1  0.0000000  0.6508444  3
    166    156    167    169     1  0.0000000  0.6508444  3
    167    156    155    220     1  0.0000000  0.6508444  3
    167    170    219    209     1  180.0000771  6.0668000  2
    167    170    219    209     1  180.0000771  1.4644000  4
    168    167    170    171     1  0.0000000  3.3472000  1
    168    167    170    171     1  0.0000000  0.0000000  2
    168    167    170    171     1  180.0000771  0.3347200  3
    168    167    170    219     1  180.0000771  0.0000000  2
    169    167    170    171     1  0.0000000  3.3472000  1
    169    167    170    171     1  0.0000000  0.0000000  2
    169    167    170    171     1  180.0000771  0.3347200  3
    169    167    170    219     1  180.0000771  0.0000000  2
    170    219    200    202     1  0.0000000  1.2552000  3
    171    170    219    209     1  180.0000771  6.0668000  2
    171    170    219    209     1  180.0000771  1.4644000  4
    172    173    175    179     1  0.0000000  0.6508444  3
    172    173    193    194     1  0.0000000  1.0460000  1
    172    173    193    194     1  0.0000000  0.6694400  3
    172    183    188    189     1  0.0000000  1.0460000  1
    172    183    188    189     1  0.0000000  0.6694400  3
    172    190    177    180     1  0.0000000  1.6038667  3
    173    172    183    186     1  0.0000000  0.6508444  3
    173    172    183    187     1  0.0000000  0.6508444  3
    173    175    176    178     1  0.0000000  0.6508444  3
    173    175    182    184     1  0.0000000  1.0460000  1
    173    175    182    184     1  0.0000000  0.6694400  3
    174    172    173    175     1  0.0000000  0.6508444  3
    174    172    173    193     1  0.0000000  1.0460000  1
    174    172    173    193     1  0.0000000  0.0000000  3
    174    172    173    192     1  0.0000000  0.6508444  3
    174    172    183    188     1  0.0000000  1.0460000  1
    174    172    183    188     1  0.0000000  0.0000000  3
    174    172    183    186     1  0.0000000  0.6508444  3
    174    172    183    187     1  0.0000000  0.6508444  3
    174    172    190    177     1  0.0000000  1.6038667  3
    175    173    193    194     1  0.0000000  1.0460000  1
    175    173    193    194     1  0.0000000  0.6694400  3
    175    176    177    180     1  0.0000000  0.6508444  3
    175    176    195    185     1  0.0000000  1.2552000  3
    176    175    173    192     1  0.0000000  0.6508444  3
    176    175    182    184     1  0.0000000  1.0460000  1
    176    175    182    184     1  0.0000000  0.6694400  3
    176    177    181    191     1  0.0000000  1.0460000  1
    176    177    181    191     1  0.0000000  0.6694400  3
    177    176    175    179     1  0.0000000  0.6508444  3
    177    176    195    185     1  0.0000000  1.2552000  3
    178    176    175    182     1  0.0000000  1.0460000  1
    178    176    175    182     1  0.0000000  0.0000000  3
    178    176    175    179     1  0.0000000  0.6508444  3
    178    176    177    181     1  0.0000000  1.0460000  1
    178    176    177    181     1  0.0000000  0.0000000  3
    178    176    177    190     1  0.0000000  1.0460000  1
    178    176    177    190     1  0.0000000  0.0000000  3
    178    176    177    180     1  0.0000000  0.6508444  3
    178    176    195    185     1  0.0000000  1.2552000  3
    179    175    173    193     1  0.0000000  1.0460000  1
    179    175    173    193     1  0.0000000  0.0000000  3
    179    175    173    192     1  0.0000000  0.6508444  3
    179    175    176    195     1  0.0000000  0.6508444  3
    179    175    182    184     1  0.0000000  0.6973333  3
    180    177    176    195     1  0.0000000  0.6508444  3
    180    177    181    191     1  0.0000000  0.6973333  3
    182    175    173    192     1  0.0000000  1.0460000  1
    182    175    173    192     1  0.0000000  0.0000000  3
    183    172    173    192     1  0.0000000  0.6508444  3
    186    183    172    190     1  0.0000000  1.0460000  1
    186    183    172    190     1  0.0000000  0.0000000  3
    186    183    188    189     1  0.0000000  0.6973333  3
    187    183    172    190     1  0.0000000  1.0460000  1
    187    183    172    190     1  0.0000000  0.0000000  3
    187    183    188    189     1  0.0000000  0.6973333  3
    190    172    173    192     1  0.0000000  1.0460000  1
    190    172    173    192     1  0.0000000  0.0000000  3
    190    177    181    191     1  0.0000000  0.6973333  3
    192    173    193    194     1  0.0000000  0.6973333  3
    196    197    199    203     1  0.0000000  0.6508444  3
    196    197    217    218     1  0.0000000  1.0460000  1
    196    197    217    218     1  0.0000000  0.6694400  3
    196    207    212    213     1  0.0000000  1.0460000  1
    196    207    212    213     1  0.0000000  0.6694400  3
    196    214    201    204     1  0.0000000  1.6038667  3
    197    196    207    210     1  0.0000000  0.6508444  3
    197    196    207    211     1  0.0000000  0.6508444  3
    197    199    200    202     1  0.0000000  0.6508444  3
    197    199    206    208     1  0.0000000  1.0460000  1
    197    199    206    208     1  0.0000000  0.6694400  3
    198    196    197    199     1  0.0000000  0.6508444  3
    198    196    197    217     1  0.0000000  1.0460000  1
    198    196    197    217     1  0.0000000  0.0000000  3
    198    196    197    216     1  0.0000000  0.6508444  3
    198    196    207    212     1  0.0000000  1.0460000  1
    198    196    207    212     1  0.0000000  0.0000000  3
    198    196    207    210     1  0.0000000  0.6508444  3
    198    196    207    211     1  0.0000000  0.6508444  3
    198    196    214    201     1  0.0000000  1.6038667  3
    199    197    217    218     1  0.0000000  1.0460000  1
    199    197    217    218     1  0.0000000  0.6694400  3
    199    200    201    204     1  0.0000000  0.6508444  3
    199    200    219    209     1  0.0000000  1.2552000  3
    200    199    197    216     1  0.0000000  0.6508444  3
    200    199    206    208     1  0.0000000  1.0460000  1
    200    199    206    208     1  0.0000000  0.6694400  3
    200    201    205    215     1  0.0000000  1.0460000  1
    200    201    205    215     1  0.0000000  0.6694400  3
    201    200    199    203     1  0.0000000  0.6508444  3
    201    200    219    209     1  0.0000000  1.2552000  3
    202    200    199    206     1  0.0000000  1.0460000  1
    202    200    199    206     1  0.0000000  0.0000000  3
    202    200    199    203     1  0.0000000  0.6508444  3
    202    200    201    205     1  0.0000000  1.0460000  1
    202    200    201    205     1  0.0000000  0.0000000  3
    202    200    201    214     1  0.0000000  1.0460000  1
    202    200    201    214     1  0.0000000  0.0000000  3
    202    200    201    204     1  0.0000000  0.6508444  3
    202    200    219    209     1  0.0000000  1.2552000  3
    203    199    197    217     1  0.0000000  1.0460000  1
    203    199    197    217     1  0.0000000  0.0000000  3
    203    199    197    216     1  0.0000000  0.6508444  3
    203    199    200    219     1  0.0000000  0.6508444  3
    203    199    206    208     1  0.0000000  0.6973333  3
    204    201    200    219     1  0.0000000  0.6508444  3
    204    201    205    215     1  0.0000000  0.6973333  3
    206    199    197    216     1  0.0000000  1.0460000  1
    206    199    197    216     1  0.0000000  0.0000000  3
    207    196    197    216     1  0.0000000  0.6508444  3
    210    207    196    214     1  0.0000000  1.0460000  1
    210    207    196    214     1  0.0000000  0.0000000  3
    210    207    212    213     1  0.0000000  0.6973333  3
    211    207    196    214     1  0.0000000  1.0460000  1
    211    207    196    214     1  0.0000000  0.0000000  3
    211    207    212    213     1  0.0000000  0.6973333  3
    214    196    197    216     1  0.0000000  1.0460000  1
    214    196    197    216     1  0.0000000  0.0000000  3
    214    201    205    215     1  0.0000000  0.6973333  3
    216    197    217    218     1  0.0000000  0.6973333  3
    221    223    225    227     1  0.0000000  0.6508444  3
    221    223    225    228     1  0.0000000  0.6508444  3
    222    221    223    225     1  0.0000000  0.0000000  2
    222    221    223    224     1  0.0000000  0.0000000  2
    222    221    223    226     1  0.0000000  0.0000000  2
    223    225    229    294     1  0.0000000  0.6508444  3
    224    223    225    229     1  0.0000000  0.6508444  3
    224    223    225    227     1  0.0000000  0.6508444  3
    224    223    225    228     1  0.0000000  0.6508444  3
    225    229    230    239     1  0.0000000  0.6508444  3
    225    229    230    240     1  0.0000000  0.6508444  3
    225    229    231    232     1  0.0000000  0.6508444  3
    225    229    231    234     1  0.0000000  0.6508444  3
    226    223    225    229     1  0.0000000  0.6508444  3
    226    223    225    227     1  0.0000000  0.6508444  3
    226    223    225    228     1  0.0000000  0.6508444  3
    227    225    229    230     1  0.0000000  0.6508444  3
    227    225    229    231     1  0.0000000  0.6508444  3
    227    225    229    294     1  0.0000000  0.6508444  3
    228    225    229    230     1  0.0000000  0.6508444  3
    228    225    229    231     1  0.0000000  0.6508444  3
    228    225    229    294     1  0.0000000  0.6508444  3
    229    230    241    242     1  0.0000000  0.6508444  3
    229    230    241    243     1  0.0000000  0.6508444  3
    229    231    233    235     1  0.0000000  0.6508444  3
    229    231    233    236     1  0.0000000  0.6508444  3
    230    229    231    232     1  0.0000000  0.6508444  3
    230    229    231    234     1  0.0000000  0.6508444  3
    231    229    230    239     1  0.0000000  0.6508444  3
    231    229    230    240     1  0.0000000  0.6508444  3
    232    231    233    237     1  0.0000000  0.6508444  3
    232    231    233    235     1  0.0000000  0.6508444  3
    232    231    233    236     1  0.0000000  0.6508444  3
    232    231    229    294     1  0.0000000  0.6508444  3
    233    237    269    259     1  180.0000771  6.0668000  2
    233    237    269    259     1  180.0000771  1.4644000  4
    233    231    229    294     1  0.0000000  0.6508444  3
    234    231    233    237     1  0.0000000  0.6508444  3
    234    231    233    235     1  0.0000000  0.6508444  3
    234    231    233    236     1  0.0000000  0.6508444  3
    234    231    229    294     1  0.0000000  0.6508444  3
    235    233    237    238     1  0.0000000  3.3472000  1
    235    233    237    238     1  0.0000000  0.0000000  2
    235    233    237    238     1  180.0000771  0.3347200  3
    235    233    237    269     1  180.0000771  0.0000000  2
    236    233    237    238     1  0.0000000  3.3472000  1
    236    233    237    238     1  0.0000000  0.0000000  2
    236    233    237    238     1  180.0000771  0.3347200  3
    236    233    237    269     1  180.0000771  0.0000000  2
    237    269    250    252     1  0.0000000  1.2552000  3
    238    237    269    259     1  180.0000771  6.0668000  2
    238    237    269    259     1  180.0000771  1.4644000  4
    239    230    241    244     1  0.0000000  0.6508444  3
    239    230    241    242     1  0.0000000  0.6508444  3
    239    230    241    243     1  0.0000000  0.6508444  3
    239    230    229    294     1  0.0000000  0.6508444  3
    240    230    241    244     1  0.0000000  0.6508444  3
    240    230    241    242     1  0.0000000  0.6508444  3
    240    230    241    243     1  0.0000000  0.6508444  3
    240    230    229    294     1  0.0000000  0.6508444  3
    241    244    293    283     1  180.0000771  6.0668000  2
    241    244    293    283     1  180.0000771  1.4644000  4
    241    230    229    294     1  0.0000000  0.6508444  3
    242    241    244    245     1  0.0000000  3.3472000  1
    242    241    244    245     1  0.0000000  0.0000000  2
    242    241    244    245     1  180.0000771  0.3347200  3
    242    241    244    293     1  180.0000771  0.0000000  2
    243    241    244    245     1  0.0000000  3.3472000  1
    243    241    244    245     1  0.0000000  0.0000000  2
    243    241    244    245     1  180.0000771  0.3347200  3
    243    241    244    293     1  180.0000771  0.0000000  2
    244    293    274    276     1  0.0000000  1.2552000  3
    245    244    293    283     1  180.0000771  6.0668000  2
    245    244    293    283     1  180.0000771  1.4644000  4
    246    247    249    253     1  0.0000000  0.6508444  3
    246    247    267    268     1  0.0000000  1.0460000  1
    246    247    267    268     1  0.0000000  0.6694400  3
    246    257    262    263     1  0.0000000  1.0460000  1
    246    257    262    263     1  0.0000000  0.6694400  3
    246    264    251    254     1  0.0000000  1.6038667  3
    247    249    250    252     1  0.0000000  0.6508444  3
    247    249    256    258     1  0.0000000  1.0460000  1
    247    249    256    258     1  0.0000000  0.6694400  3
    247    246    257    260     1  0.0000000  0.6508444  3
    247    246    257    261     1  0.0000000  0.6508444  3
    248    246    247    249     1  0.0000000  0.6508444  3
    248    246    247    267     1  0.0000000  1.0460000  1
    248    246    247    267     1  0.0000000  0.0000000  3
    248    246    247    266     1  0.0000000  0.6508444  3
    248    246    257    262     1  0.0000000  1.0460000  1
    248    246    257    262     1  0.0000000  0.0000000  3
    248    246    257    260     1  0.0000000  0.6508444  3
    248    246    257    261     1  0.0000000  0.6508444  3
    248    246    264    251     1  0.0000000  1.6038667  3
    249    250    251    254     1  0.0000000  0.6508444  3
    249    250    269    259     1  0.0000000  1.2552000  3
    249    247    267    268     1  0.0000000  1.0460000  1
    249    247    267    268     1  0.0000000  0.6694400  3
    250    251    255    265     1  0.0000000  1.0460000  1
    250    251    255    265     1  0.0000000  0.6694400  3
    250    249    256    258     1  0.0000000  1.0460000  1
    250    249    256    258     1  0.0000000  0.6694400  3
    250    249    247    266     1  0.0000000  0.6508444  3
    251    250    269    259     1  0.0000000  1.2552000  3
    251    250    249    253     1  0.0000000  0.6508444  3
    252    250    251    255     1  0.0000000  1.0460000  1
    252    250    251    255     1  0.0000000  0.0000000  3
    252    250    251    264     1  0.0000000  1.0460000  1
    252    250    251    264     1  0.0000000  0.0000000  3
    252    250    251    254     1  0.0000000  0.6508444  3
    252    250    269    259     1  0.0000000  1.2552000  3
    252    250    249    256     1  0.0000000  1.0460000  1
    252    250    249    256     1  0.0000000  0.0000000  3
    252    250    249    253     1  0.0000000  0.6508444  3
    253    249    250    269     1  0.0000000  0.6508444  3
    253    249    256    258     1  0.0000000  0.6973333  3
    253    249    247    267     1  0.0000000  1.0460000  1
    253    249    247    267     1  0.0000000  0.0000000  3
    253    249    247    266     1  0.0000000  0.6508444  3
    254    251    255    265     1  0.0000000  0.6973333  3
    254    251    250    269     1  0.0000000  0.6508444  3
    256    249    247    266     1  0.0000000  1.0460000  1
    256    249    247    266     1  0.0000000  0.0000000  3
    257    246    247    266     1  0.0000000  0.6508444  3
    260    257    262    263     1  0.0000000  0.6973333  3
    260    257    246    264     1  0.0000000  1.0460000  1
    260    257    246    264     1  0.0000000  0.0000000  3
    261    257    262    263     1  0.0000000  0.6973333  3
    261    257    246    264     1  0.0000000  1.0460000  1
    261    257    246    264     1  0.0000000  0.0000000  3
    264    251    255    265     1  0.0000000  0.6973333  3
    264    246    247    266     1  0.0000000  1.0460000  1
    264    246    247    266     1  0.0000000  0.0000000  3
    266    247    267    268     1  0.0000000  0.6973333  3
    270    271    273    277     1  0.0000000  0.6508444  3
    270    271    291    292     1  0.0000000  1.0460000  1
    270    271    291    292     1  0.0000000  0.6694400  3
    270    281    286    287     1  0.0000000  1.0460000  1
    270    281    286    287     1  0.0000000  0.6694400  3
    270    288    275    278     1  0.0000000  1.6038667  3
    271    273    274    276     1  0.0000000  0.6508444  3
    271    273    280    282     1  0.0000000  1.0460000  1
    271    273    280    282     1  0.0000000  0.6694400  3
    271    270    281    284     1  0.0000000  0.6508444  3
    271    270    281    285     1  0.0000000  0.6508444  3
    272    270    271    273     1  0.0000000  0.6508444  3
    272    270    271    291     1  0.0000000  1.0460000  1
    272    270    271    291     1  0.0000000  0.0000000  3
    272    270    271    290     1  0.0000000  0.6508444  3
    272    270    281    286     1  0.0000000  1.0460000  1
    272    270    281    286     1  0.0000000  0.0000000  3
    272    270    281    284     1  0.0000000  0.6508444  3
    272    270    281    285     1  0.0000000  0.6508444  3
    272    270    288    275     1  0.0000000  1.6038667  3
    273    274    275    278     1  0.0000000  0.6508444  3
    273    274    293    283     1  0.0000000  1.2552000  3
    273    271    291    292     1  0.0000000  1.0460000  1
    273    271    291    292     1  0.0000000  0.6694400  3
    274    275    279    289     1  0.0000000  1.0460000  1
    274    275    279    289     1  0.0000000  0.6694400  3
    274    273    280    282     1  0.0000000  1.0460000  1
    274    273    280    282     1  0.0000000  0.6694400  3
    274    273    271    290     1  0.0000000  0.6508444  3
    275    274    293    283     1  0.0000000  1.2552000  3
    275    274    273    277     1  0.0000000  0.6508444  3
    276    274    275    279     1  0.0000000  1.0460000  1
    276    274    275    279     1  0.0000000  0.0000000  3
    276    274    275    288     1  0.0000000  1.0460000  1
    276    274    275    288     1  0.0000000  0.0000000  3
    276    274    275    278     1  0.0000000  0.6508444  3
    276    274    293    283     1  0.0000000  1.2552000  3
    276    274    273    280     1  0.0000000  1.0460000  1
    276    274    273    280     1  0.0000000  0.0000000  3
    276    274    273    277     1  0.0000000  0.6508444  3
    277    273    274    293     1  0.0000000  0.6508444  3
    277    273    280    282     1  0.0000000  0.6973333  3
    277    273    271    291     1  0.0000000  1.0460000  1
    277    273    271    291     1  0.0000000  0.0000000  3
    277    273    271    290     1  0.0000000  0.6508444  3
    278    275    279    289     1  0.0000000  0.6973333  3
    278    275    274    293     1  0.0000000  0.6508444  3
    280    273    271    290     1  0.0000000  1.0460000  1
    280    273    271    290     1  0.0000000  0.0000000  3
    281    270    271    290     1  0.0000000  0.6508444  3
    284    281    286    287     1  0.0000000  0.6973333  3
    284    281    270    288     1  0.0000000  1.0460000  1
    284    281    270    288     1  0.0000000  0.0000000  3
    285    281    286    287     1  0.0000000  0.6973333  3
    285    281    270    288     1  0.0000000  1.0460000  1
    285    281    270    288     1  0.0000000  0.0000000  3
    288    275    279    289     1  0.0000000  0.6973333  3
    288    270    271    290     1  0.0000000  1.0460000  1
    288    270    271    290     1  0.0000000  0.0000000  3
    290    271    291    292     1  0.0000000  0.6973333  3
    295    297    299    301     1  0.0000000  0.6508444  3
    295    297    299    302     1  0.0000000  0.6508444  3
    296    295    297    299     1  0.0000000  0.0000000  2
    296    295    297    298     1  0.0000000  0.0000000  2
    296    295    297    300     1  0.0000000  0.0000000  2
    297    299    303    368     1  0.0000000  0.6508444  3
    298    297    299    303     1  0.0000000  0.6508444  3
    298    297    299    301     1  0.0000000  0.6508444  3
    298    297    299    302     1  0.0000000  0.6508444  3
    299    303    304    313     1  0.0000000  0.6508444  3
    299    303    304    314     1  0.0000000  0.6508444  3
    299    303    305    306     1  0.0000000  0.6508444  3
    299    303    305    308     1  0.0000000  0.6508444  3
    300    297    299    303     1  0.0000000  0.6508444  3
    300    297    299    301     1  0.0000000  0.6508444  3
    300    297    299    302     1  0.0000000  0.6508444  3
    301    299    303    304     1  0.0000000  0.6508444  3
    301    299    303    305     1  0.0000000  0.6508444  3
    301    299    303    368     1  0.0000000  0.6508444  3
    302    299    303    304     1  0.0000000  0.6508444  3
    302    299    303    305     1  0.0000000  0.6508444  3
    302    299    303    368     1  0.0000000  0.6508444  3
    303    304    315    316     1  0.0000000  0.6508444  3
    303    304    315    317     1  0.0000000  0.6508444  3
    303    305    307    309     1  0.0000000  0.6508444  3
    303    305    307    310     1  0.0000000  0.6508444  3
    304    303    305    306     1  0.0000000  0.6508444  3
    304    303    305    308     1  0.0000000  0.6508444  3
    305    303    304    313     1  0.0000000  0.6508444  3
    305    303    304    314     1  0.0000000  0.6508444  3
    306    305    303    368     1  0.0000000  0.6508444  3
    306    305    307    311     1  0.0000000  0.6508444  3
    306    305    307    309     1  0.0000000  0.6508444  3
    306    305    307    310     1  0.0000000  0.6508444  3
    307    305    303    368     1  0.0000000  0.6508444  3
    307    311    343    333     1  180.0000771  6.0668000  2
    307    311    343    333     1  180.0000771  1.4644000  4
    308    305    303    368     1  0.0000000  0.6508444  3
    308    305    307    311     1  0.0000000  0.6508444  3
    308    305    307    309     1  0.0000000  0.6508444  3
    308    305    307    310     1  0.0000000  0.6508444  3
    309    307    311    312     1  0.0000000  3.3472000  1
    309    307    311    312     1  0.0000000  0.0000000  2
    309    307    311    312     1  180.0000771  0.3347200  3
    309    307    311    343     1  180.0000771  0.0000000  2
    310    307    311    312     1  0.0000000  3.3472000  1
    310    307    311    312     1  0.0000000  0.0000000  2
    310    307    311    312     1  180.0000771  0.3347200  3
    310    307    311    343     1  180.0000771  0.0000000  2
    311    343    324    326     1  0.0000000  1.2552000  3
    312    311    343    333     1  180.0000771  6.0668000  2
    312    311    343    333     1  180.0000771  1.4644000  4
    313    304    303    368     1  0.0000000  0.6508444  3
    313    304    315    318     1  0.0000000  0.6508444  3
    313    304    315    316     1  0.0000000  0.6508444  3
    313    304    315    317     1  0.0000000  0.6508444  3
    314    304    303    368     1  0.0000000  0.6508444  3
    314    304    315    318     1  0.0000000  0.6508444  3
    314    304    315    316     1  0.0000000  0.6508444  3
    314    304    315    317     1  0.0000000  0.6508444  3
    315    304    303    368     1  0.0000000  0.6508444  3
    315    318    367    357     1  180.0000771  6.0668000  2
    315    318    367    357     1  180.0000771  1.4644000  4
    316    315    318    319     1  0.0000000  3.3472000  1
    316    315    318    319     1  0.0000000  0.0000000  2
    316    315    318    319     1  180.0000771  0.3347200  3
    316    315    318    367     1  180.0000771  0.0000000  2
    317    315    318    319     1  0.0000000  3.3472000  1
    317    315    318    319     1  0.0000000  0.0000000  2
    317    315    318    319     1  180.0000771  0.3347200  3
    317    315    318    367     1  180.0000771  0.0000000  2
    318    367    348    350     1  0.0000000  1.2552000  3
    319    318    367    357     1  180.0000771  6.0668000  2
    319    318    367    357     1  180.0000771  1.4644000  4
    320    321    323    327     1  0.0000000  0.6508444  3
    320    321    341    342     1  0.0000000  1.0460000  1
    320    321    341    342     1  0.0000000  0.6694400  3
    320    331    336    337     1  0.0000000  1.0460000  1
    320    331    336    337     1  0.0000000  0.6694400  3
    320    338    325    328     1  0.0000000  1.6038667  3
    321    320    331    334     1  0.0000000  0.6508444  3
    321    320    331    335     1  0.0000000  0.6508444  3
    321    323    324    326     1  0.0000000  0.6508444  3
    321    323    330    332     1  0.0000000  1.0460000  1
    321    323    330    332     1  0.0000000  0.6694400  3
    322    320    321    323     1  0.0000000  0.6508444  3
    322    320    321    341     1  0.0000000  1.0460000  1
    322    320    321    341     1  0.0000000  0.0000000  3
    322    320    321    340     1  0.0000000  0.6508444  3
    322    320    331    336     1  0.0000000  1.0460000  1
    322    320    331    336     1  0.0000000  0.0000000  3
    322    320    331    334     1  0.0000000  0.6508444  3
    322    320    331    335     1  0.0000000  0.6508444  3
    322    320    338    325     1  0.0000000  1.6038667  3
    323    321    341    342     1  0.0000000  1.0460000  1
    323    321    341    342     1  0.0000000  0.6694400  3
    323    324    325    328     1  0.0000000  0.6508444  3
    323    324    343    333     1  0.0000000  1.2552000  3
    324    323    321    340     1  0.0000000  0.6508444  3
    324    323    330    332     1  0.0000000  1.0460000  1
    324    323    330    332     1  0.0000000  0.6694400  3
    324    325    329    339     1  0.0000000  1.0460000  1
    324    325    329    339     1  0.0000000  0.6694400  3
    325    324    323    327     1  0.0000000  0.6508444  3
    325    324    343    333     1  0.0000000  1.2552000  3
    326    324    323    330     1  0.0000000  1.0460000  1
    326    324    323    330     1  0.0000000  0.0000000  3
    326    324    323    327     1  0.0000000  0.6508444  3
    326    324    325    329     1  0.0000000  1.0460000  1
    326    324    325    329     1  0.0000000  0.0000000  3
    326    324    325    338     1  0.0000000  1.0460000  1
    326    324    325    338     1  0.0000000  0.0000000  3
    326    324    325    328     1  0.0000000  0.6508444  3
    326    324    343    333     1  0.0000000  1.2552000  3
    327    323    321    341     1  0.0000000  1.0460000  1
    327    323    321    341     1  0.0000000  0.0000000  3
    327    323    321    340     1  0.0000000  0.6508444  3
    327    323    324    343     1  0.0000000  0.6508444  3
    327    323    330    332     1  0.0000000  0.6973333  3
    328    325    324    343     1  0.0000000  0.6508444  3
    328    325    329    339     1  0.0000000  0.6973333  3
    330    323    321    340     1  0.0000000  1.0460000  1
    330    323    321    340     1  0.0000000  0.0000000  3
    331    320    321    340     1  0.0000000  0.6508444  3
    334    331    320    338     1  0.0000000  1.0460000  1
    334    331    320    338     1  0.0000000  0.0000000  3
    334    331    336    337     1  0.0000000  0.6973333  3
    335    331    320    338     1  0.0000000  1.0460000  1
    335    331    320    338     1  0.0000000  0.0000000  3
    335    331    336    337     1  0.0000000  0.6973333  3
    338    320    321    340     1  0.0000000  1.0460000  1
    338    320    321    340     1  0.0000000  0.0000000  3
    338    325    329    339     1  0.0000000  0.6973333  3
    340    321    341    342     1  0.0000000  0.6973333  3
    344    345    347    351     1  0.0000000  0.6508444  3
    344    345    365    366     1  0.0000000  1.0460000  1
    344    345    365    366     1  0.0000000  0.6694400  3
    344    355    360    361     1  0.0000000  1.0460000  1
    344    355    360    361     1  0.0000000  0.6694400  3
    344    362    349    352     1  0.0000000  1.6038667  3
    345    344    355    358     1  0.0000000  0.6508444  3
    345    344    355    359     1  0.0000000  0.6508444  3
    345    347    348    350     1  0.0000000  0.6508444  3
    345    347    354    356     1  0.0000000  1.0460000  1
    345    347    354    356     1  0.0000000  0.6694400  3
    346    344    345    347     1  0.0000000  0.6508444  3
    346    344    345    365     1  0.0000000  1.0460000  1
    346    344    345    365     1  0.0000000  0.0000000  3
    346    344    345    364     1  0.0000000  0.6508444  3
    346    344    355    360     1  0.0000000  1.0460000  1
    346    344    355    360     1  0.0000000  0.0000000  3
    346    344    355    358     1  0.0000000  0.6508444  3
    346    344    355    359     1  0.0000000  0.6508444  3
    346    344    362    349     1  0.0000000  1.6038667  3
    347    345    365    366     1  0.0000000  1.0460000  1
    347    345    365    366     1  0.0000000  0.6694400  3
    347    348    349    352     1  0.0000000  0.6508444  3
    347    348    367    357     1  0.0000000  1.2552000  3
    348    347    345    364     1  0.0000000  0.6508444  3
    348    347    354    356     1  0.0000000  1.0460000  1
    348    347    354    356     1  0.0000000  0.6694400  3
    348    349    353    363     1  0.0000000  1.0460000  1
    348    349    353    363     1  0.0000000  0.6694400  3
    349    348    347    351     1  0.0000000  0.6508444  3
    349    348    367    357     1  0.0000000  1.2552000  3
    350    348    347    354     1  0.0000000  1.0460000  1
    350    348    347    354     1  0.0000000  0.0000000  3
    350    348    347    351     1  0.0000000  0.6508444  3
    350    348    349    353     1  0.0000000  1.0460000  1
    350    348    349    353     1  0.0000000  0.0000000  3
    350    348    349    362     1  0.0000000  1.0460000  1
    350    348    349    362     1  0.0000000  0.0000000  3
    350    348    349    352     1  0.0000000  0.6508444  3
    350    348    367    357     1  0.0000000  1.2552000  3
    351    347    345    365     1  0.0000000  1.0460000  1
    351    347    345    365     1  0.0000000  0.0000000  3
    351    347    345    364     1  0.0000000  0.6508444  3
    351    347    348    367     1  0.0000000  0.6508444  3
    351    347    354    356     1  0.0000000  0.6973333  3
    352    349    348    367     1  0.0000000  0.6508444  3
    352    349    353    363     1  0.0000000  0.6973333  3
    354    347    345    364     1  0.0000000  1.0460000  1
    354    347    345    364     1  0.0000000  0.0000000  3
    355    344    345    364     1  0.0000000  0.6508444  3
    358    355    344    362     1  0.0000000  1.0460000  1
    358    355    344    362     1  0.0000000  0.0000000  3
    358    355    360    361     1  0.0000000  0.6973333  3
    359    355    344    362     1  0.0000000  1.0460000  1
    359    355    344    362     1  0.0000000  0.0000000  3
    359    355    360    361     1  0.0000000  0.6973333  3
    362    344    345    364     1  0.0000000  1.0460000  1
    362    344    345    364     1  0.0000000  0.0000000  3
    362    349    353    363     1  0.0000000  0.6973333  3
    364    345    365    366     1  0.0000000  0.6973333  3
    369    371    373    375     1  0.0000000  0.6508444  3
    369    371    373    376     1  0.0000000  0.6508444  3
    370    369    371    373     1  0.0000000  0.0000000  2
    370    369    371    372     1  0.0000000  0.0000000  2
    370    369    371    374     1  0.0000000  0.0000000  2
    371    373    377    442     1  0.0000000  0.6508444  3
    372    371    373    377     1  0.0000000  0.6508444  3
    372    371    373    375     1  0.0000000  0.6508444  3
    372    371    373    376     1  0.0000000  0.6508444  3
    373    377    378    387     1  0.0000000  0.6508444  3
    373    377    378    388     1  0.0000000  0.6508444  3
    373    377    379    380     1  0.0000000  0.6508444  3
    373    377    379    382     1  0.0000000  0.6508444  3
    374    371    373    377     1  0.0000000  0.6508444  3
    374    371    373    375     1  0.0000000  0.6508444  3
    374    371    373    376     1  0.0000000  0.6508444  3
    375    373    377    378     1  0.0000000  0.6508444  3
    375    373    377    379     1  0.0000000  0.6508444  3
    375    373    377    442     1  0.0000000  0.6508444  3
    376    373    377    378     1  0.0000000  0.6508444  3
    376    373    377    379     1  0.0000000  0.6508444  3
    376    373    377    442     1  0.0000000  0.6508444  3
    377    378    389    390     1  0.0000000  0.6508444  3
    377    378    389    391     1  0.0000000  0.6508444  3
    377    379    381    383     1  0.0000000  0.6508444  3
    377    379    381    384     1  0.0000000  0.6508444  3
    378    377    379    380     1  0.0000000  0.6508444  3
    378    377    379    382     1  0.0000000  0.6508444  3
    379    377    378    387     1  0.0000000  0.6508444  3
    379    377    378    388     1  0.0000000  0.6508444  3
    380    379    381    385     1  0.0000000  0.6508444  3
    380    379    381    383     1  0.0000000  0.6508444  3
    380    379    381    384     1  0.0000000  0.6508444  3
    380    379    377    442     1  0.0000000  0.6508444  3
    381    385    417    407     1  180.0000771  6.0668000  2
    381    385    417    407     1  180.0000771  1.4644000  4
    381    379    377    442     1  0.0000000  0.6508444  3
    382    379    381    385     1  0.0000000  0.6508444  3
    382    379    381    383     1  0.0000000  0.6508444  3
    382    379    381    384     1  0.0000000  0.6508444  3
    382    379    377    442     1  0.0000000  0.6508444  3
    383    381    385    386     1  0.0000000  3.3472000  1
    383    381    385    386     1  0.0000000  0.0000000  2
    383    381    385    386     1  180.0000771  0.3347200  3
    383    381    385    417     1  180.0000771  0.0000000  2
    384    381    385    386     1  0.0000000  3.3472000  1
    384    381    385    386     1  0.0000000  0.0000000  2
    384    381    385    386     1  180.0000771  0.3347200  3
    384    381    385    417     1  180.0000771  0.0000000  2
    385    417    398    400     1  0.0000000  1.2552000  3
    386    385    417    407     1  180.0000771  6.0668000  2
    386    385    417    407     1  180.0000771  1.4644000  4
    387    378    389    392     1  0.0000000  0.6508444  3
    387    378    389    390     1  0.0000000  0.6508444  3
    387    378    389    391     1  0.0000000  0.6508444  3
    387    378    377    442     1  0.0000000  0.6508444  3
    388    378    389    392     1  0.0000000  0.6508444  3
    388    378    389    390     1  0.0000000  0.6508444  3
    388    378    389    391     1  0.0000000  0.6508444  3
    388    378    377    442     1  0.0000000  0.6508444  3
    389    392    441    431     1  180.0000771  6.0668000  2
    389    392    441    431     1  180.0000771  1.4644000  4
    389    378    377    442     1  0.0000000  0.6508444  3
    390    389    392    393     1  0.0000000  3.3472000  1
    390    389    392    393     1  0.0000000  0.0000000  2
    390    389    392    393     1  180.0000771  0.3347200  3
    390    389    392    441     1  180.0000771  0.0000000  2
    391    389    392    393     1  0.0000000  3.3472000  1
    391    389    392    393     1  0.0000000  0.0000000  2
    391    389    392    393     1  180.0000771  0.3347200  3
    391    389    392    441     1  180.0000771  0.0000000  2
    392    441    422    424     1  0.0000000  1.2552000  3
    393    392    441    431     1  180.0000771  6.0668000  2
    393    392    441    431     1  180.0000771  1.4644000  4
    394    395    397    401     1  0.0000000  0.6508444  3
    394    395    415    416     1  0.0000000  1.0460000  1
    394    395    415    416     1  0.0000000  0.6694400  3
    394    405    410    411     1  0.0000000  1.0460000  1
    394    405    410    411     1  0.0000000  0.6694400  3
    394    412    399    402     1  0.0000000  1.6038667  3
    395    397    398    400     1  0.0000000  0.6508444  3
    395    397    404    406     1  0.0000000  1.0460000  1
    395    397    404    406     1  0.0000000  0.6694400  3
    395    394    405    408     1  0.0000000  0.6508444  3
    395    394    405    409     1  0.0000000  0.6508444  3
    396    394    395    397     1  0.0000000  0.6508444  3
    396    394    395    415     1  0.0000000  1.0460000  1
    396    394    395    415     1  0.0000000  0.0000000  3
    396    394    395    414     1  0.0000000  0.6508444  3
    396    394    405    410     1  0.0000000  1.0460000  1
    396    394    405    410     1  0.0000000  0.0000000  3
    396    394    405    408     1  0.0000000  0.6508444  3
    396    394    405    409     1  0.0000000  0.6508444  3
    396    394    412    399     1  0.0000000  1.6038667  3
    397    398    399    402     1  0.0000000  0.6508444  3
    397    398    417    407     1  0.0000000  1.2552000  3
    397    395    415    416     1  0.0000000  1.0460000  1
    397    395    415    416     1  0.0000000  0.6694400  3
    398    399    403    413     1  0.0000000  1.0460000  1
    398    399    403    413     1  0.0000000  0.6694400  3
    398    397    404    406     1  0.0000000  1.0460000  1
    398    397    404    406     1  0.0000000  0.6694400  3
    398    397    395    414     1  0.0000000  0.6508444  3
    399    398    417    407     1  0.0000000  1.2552000  3
    399    398    397    401     1  0.0000000  0.6508444  3
    400    398    399    403     1  0.0000000  1.0460000  1
    400    398    399    403     1  0.0000000  0.0000000  3
    400    398    399    412     1  0.0000000  1.0460000  1
    400    398    399    412     1  0.0000000  0.0000000  3
    400    398    399    402     1  0.0000000  0.6508444  3
    400    398    417    407     1  0.0000000  1.2552000  3
    400    398    397    404     1  0.0000000  1.0460000  1
    400    398    397    404     1  0.0000000  0.0000000  3
    400    398    397    401     1  0.0000000  0.6508444  3
    401    397    398    417     1  0.0000000  0.6508444  3
    401    397    404    406     1  0.0000000  0.6973333  3
    401    397    395    415     1  0.0000000  1.0460000  1
    401    397    395    415     1  0.0000000  0.0000000  3
    401    397    395    414     1  0.0000000  0.6508444  3
    402    399    403    413     1  0.0000000  0.6973333  3
    402    399    398    417     1  0.0000000  0.6508444  3
    404    397    395    414     1  0.0000000  1.0460000  1
    404    397    395    414     1  0.0000000  0.0000000  3
    405    394    395    414     1  0.0000000  0.6508444  3
    408    405    410    411     1  0.0000000  0.6973333  3
    408    405    394    412     1  0.0000000  1.0460000  1
    408    405    394    412     1  0.0000000  0.0000000  3
    409    405    410    411     1  0.0000000  0.6973333  3
    409    405    394    412     1  0.0000000  1.0460000  1
    409    405    394    412     1  0.0000000  0.0000000  3
    412    399    403    413     1  0.0000000  0.6973333  3
    412    394    395    414     1  0.0000000  1.0460000  1
    412    394    395    414     1  0.0000000  0.0000000  3
    414    395    415    416     1  0.0000000  0.6973333  3
    418    419    421    425     1  0.0000000  0.6508444  3
    418    419    439    440     1  0.0000000  1.0460000  1
    418    419    439    440     1  0.0000000  0.6694400  3
    418    429    434    435     1  0.0000000  1.0460000  1
    418    429    434    435     1  0.0000000  0.6694400  3
    418    436    423    426     1  0.0000000  1.6038667  3
    419    421    422    424     1  0.0000000  0.6508444  3
    419    421    428    430     1  0.0000000  1.0460000  1
    419    421    428    430     1  0.0000000  0.6694400  3
    419    418    429    432     1  0.0000000  0.6508444  3
    419    418    429    433     1  0.0000000  0.6508444  3
    420    418    419    421     1  0.0000000  0.6508444  3
    420    418    419    439     1  0.0000000  1.0460000  1
    420    418    419    439     1  0.0000000  0.0000000  3
    420    418    419    438     1  0.0000000  0.6508444  3
    420    418    429    434     1  0.0000000  1.0460000  1
    420    418    429    434     1  0.0000000  0.0000000  3
    420    418    429    432     1  0.0000000  0.6508444  3
    420    418    429    433     1  0.0000000  0.6508444  3
    420    418    436    423     1  0.0000000  1.6038667  3
    421    422    423    426     1  0.0000000  0.6508444  3
    421    422    441    431     1  0.0000000  1.2552000  3
    421    419    439    440     1  0.0000000  1.0460000  1
    421    419    439    440     1  0.0000000  0.6694400  3
    422    423    427    437     1  0.0000000  1.0460000  1
    422    423    427    437     1  0.0000000  0.6694400  3
    422    421    428    430     1  0.0000000  1.0460000  1
    422    421    428    430     1  0.0000000  0.6694400  3
    422    421    419    438     1  0.0000000  0.6508444  3
    423    422    441    431     1  0.0000000  1.2552000  3
    423    422    421    425     1  0.0000000  0.6508444  3
    424    422    423    427     1  0.0000000  1.0460000  1
    424    422    423    427     1  0.0000000  0.0000000  3
    424    422    423    436     1  0.0000000  1.0460000  1
    424    422    423    436     1  0.0000000  0.0000000  3
    424    422    423    426     1  0.0000000  0.6508444  3
    424    422    441    431     1  0.0000000  1.2552000  3
    424    422    421    428     1  0.0000000  1.0460000  1
    424    422    421    428     1  0.0000000  0.0000000  3
    424    422    421    425     1  0.0000000  0.6508444  3
    425    421    422    441     1  0.0000000  0.6508444  3
    425    421    428    430     1  0.0000000  0.6973333  3
    425    421    419    439     1  0.0000000  1.0460000  1
    425    421    419    439     1  0.0000000  0.0000000  3
    425    421    419    438     1  0.0000000  0.6508444  3
    426    423    427    437     1  0.0000000  0.6973333  3
    426    423    422    441     1  0.0000000  0.6508444  3
    428    421    419    438     1  0.0000000  1.0460000  1
    428    421    419    438     1  0.0000000  0.0000000  3
    429    418    419    438     1  0.0000000  0.6508444  3
    432    429    434    435     1  0.0000000  0.6973333  3
    432    429    418    436     1  0.0000000  1.0460000  1
    432    429    418    436     1  0.0000000  0.0000000  3
    433    429    434    435     1  0.0000000  0.6973333  3
    433    429    418    436     1  0.0000000  1.0460000  1
    433    429    418    436     1  0.0000000  0.0000000  3
    436    423    427    437     1  0.0000000  0.6973333  3
    436    418    419    438     1  0.0000000  1.0460000  1
    436    418    419    438     1  0.0000000  0.0000000  3
    438    419    439    440     1  0.0000000  0.6973333  3
    443    445    447    449     1  0.0000000  0.6508444  3
    443    445    447    450     1  0.0000000  0.6508444  3
    444    443    445    447     1  0.0000000  0.0000000  2
    444    443    445    446     1  0.0000000  0.0000000  2
    444    443    445    448     1  0.0000000  0.0000000  2
    445    447    451    516     1  0.0000000  0.6508444  3
    446    445    447    451     1  0.0000000  0.6508444  3
    446    445    447    449     1  0.0000000  0.6508444  3
    446    445    447    450     1  0.0000000  0.6508444  3
    447    451    452    461     1  0.0000000  0.6508444  3
    447    451    452    462     1  0.0000000  0.6508444  3
    447    451    453    454     1  0.0000000  0.6508444  3
    447    451    453    456     1  0.0000000  0.6508444  3
    448    445    447    451     1  0.0000000  0.6508444  3
    448    445    447    449     1  0.0000000  0.6508444  3
    448    445    447    450     1  0.0000000  0.6508444  3
    449    447    451    452     1  0.0000000  0.6508444  3
    449    447    451    453     1  0.0000000  0.6508444  3
    449    447    451    516     1  0.0000000  0.6508444  3
    450    447    451    452     1  0.0000000  0.6508444  3
    450    447    451    453     1  0.0000000  0.6508444  3
    450    447    451    516     1  0.0000000  0.6508444  3
    451    452    463    464     1  0.0000000  0.6508444  3
    451    452    463    465     1  0.0000000  0.6508444  3
    451    453    455    457     1  0.0000000  0.6508444  3
    451    453    455    458     1  0.0000000  0.6508444  3
    452    451    453    454     1  0.0000000  0.6508444  3
    452    451    453    456     1  0.0000000  0.6508444  3
    453    451    452    461     1  0.0000000  0.6508444  3
    453    451    452    462     1  0.0000000  0.6508444  3
    454    453    451    516     1  0.0000000  0.6508444  3
    454    453    455    459     1  0.0000000  0.6508444  3
    454    453    455    457     1  0.0000000  0.6508444  3
    454    453    455    458     1  0.0000000  0.6508444  3
    455    453    451    516     1  0.0000000  0.6508444  3
    455    459    491    481     1  180.0000771  6.0668000  2
    455    459    491    481     1  180.0000771  1.4644000  4
    456    453    451    516     1  0.0000000  0.6508444  3
    456    453    455    459     1  0.0000000  0.6508444  3
    456    453    455    457     1  0.0000000  0.6508444  3
    456    453    455    458     1  0.0000000  0.6508444  3
    457    455    459    460     1  0.0000000  3.3472000  1
    457    455    459    460     1  0.0000000  0.0000000  2
    457    455    459    460     1  180.0000771  0.3347200  3
    457    455    459    491     1  180.0000771  0.0000000  2
    458    455    459    460     1  0.0000000  3.3472000  1
    458    455    459    460     1  0.0000000  0.0000000  2
    458    455    459    460     1  180.0000771  0.3347200  3
    458    455    459    491     1  180.0000771  0.0000000  2
    459    491    472    474     1  0.0000000  1.2552000  3
    460    459    491    481     1  180.0000771  6.0668000  2
    460    459    491    481     1  180.0000771  1.4644000  4
    461    452    451    516     1  0.0000000  0.6508444  3
    461    452    463    466     1  0.0000000  0.6508444  3
    461    452    463    464     1  0.0000000  0.6508444  3
    461    452    463    465     1  0.0000000  0.6508444  3
    462    452    451    516     1  0.0000000  0.6508444  3
    462    452    463    466     1  0.0000000  0.6508444  3
    462    452    463    464     1  0.0000000  0.6508444  3
    462    452    463    465     1  0.0000000  0.6508444  3
    463    452    451    516     1  0.0000000  0.6508444  3
    463    466    515    505     1  180.0000771  6.0668000  2
    463    466    515    505     1  180.0000771  1.4644000  4
    464    463    466    467     1  0.0000000  3.3472000  1
    464    463    466    467     1  0.0000000  0.0000000  2
    464    463    466    467     1  180.0000771  0.3347200  3
    464    463    466    515     1  180.0000771  0.0000000  2
    465    463    466    467     1  0.0000000  3.3472000  1
    465    463    466    467     1  0.0000000  0.0000000  2
    465    463    466    467     1  180.0000771  0.3347200  3
    465    463    466    515     1  180.0000771  0.0000000  2
    466    515    496    498     1  0.0000000  1.2552000  3
    467    466    515    505     1  180.0000771  6.0668000  2
    467    466    515    505     1  180.0000771  1.4644000  4
    468    469    471    475     1  0.0000000  0.6508444  3
    468    469    489    490     1  0.0000000  1.0460000  1
    468    469    489    490     1  0.0000000  0.6694400  3
    468    479    484    485     1  0.0000000  1.0460000  1
    468    479    484    485     1  0.0000000  0.6694400  3
    468    486    473    476     1  0.0000000  1.6038667  3
    469    468    479    482     1  0.0000000  0.6508444  3
    469    468    479    483     1  0.0000000  0.6508444  3
    469    471    472    474     1  0.0000000  0.6508444  3
    469    471    478    480     1  0.0000000  1.0460000  1
    469    471    478    480     1  0.0000000  0.6694400  3
    470    468    469    471     1  0.0000000  0.6508444  3
    470    468    469    489     1  0.0000000  1.0460000  1
    470    468    469    489     1  0.0000000  0.0000000  3
    470    468    469    488     1  0.0000000  0.6508444  3
    470    468    479    484     1  0.0000000  1.0460000  1
    470    468    479    484     1  0.0000000  0.0000000  3
    470    468    479    482     1  0.0000000  0.6508444  3
    470    468    479    483     1  0.0000000  0.6508444  3
    470    468    486    473     1  0.0000000  1.6038667  3
    471    469    489    490     1  0.0000000  1.0460000  1
    471    469    489    490     1  0.0000000  0.6694400  3
    471    472    473    476     1  0.0000000  0.6508444  3
    471    472    491    481     1  0.0000000  1.2552000  3
    472    471    469    488     1  0.0000000  0.6508444  3
    472    471    478    480     1  0.0000000  1.0460000  1
    472    471    478    480     1  0.0000000  0.6694400  3
    472    473    477    487     1  0.0000000  1.0460000  1
    472    473    477    487     1  0.0000000  0.6694400  3
    473    472    471    475     1  0.0000000  0.6508444  3
    473    472    491    481     1  0.0000000  1.2552000  3
    474    472    471    478     1  0.0000000  1.0460000  1
    474    472    471    478     1  0.0000000  0.0000000  3
    474    472    471    475     1  0.0000000  0.6508444  3
    474    472    473    477     1  0.0000000  1.0460000  1
    474    472    473    477     1  0.0000000  0.0000000  3
    474    472    473    486     1  0.0000000  1.0460000  1
    474    472    473    486     1  0.0000000  0.0000000  3
    474    472    473    476     1  0.0000000  0.6508444  3
    474    472    491    481     1  0.0000000  1.2552000  3
    475    471    469    489     1  0.0000000  1.0460000  1
    475    471    469    489     1  0.0000000  0.0000000  3
    475    471    469    488     1  0.0000000  0.6508444  3
    475    471    472    491     1  0.0000000  0.6508444  3
    475    471    478    480     1  0.0000000  0.6973333  3
    476    473    472    491     1  0.0000000  0.6508444  3
    476    473    477    487     1  0.0000000  0.6973333  3
    478    471    469    488     1  0.0000000  1.0460000  1
    478    471    469    488     1  0.0000000  0.0000000  3
    479    468    469    488     1  0.0000000  0.6508444  3
    482    479    468    486     1  0.0000000  1.0460000  1
    482    479    468    486     1  0.0000000  0.0000000  3
    482    479    484    485     1  0.0000000  0.6973333  3
    483    479    468    486     1  0.0000000  1.0460000  1
    483    479    468    486     1  0.0000000  0.0000000  3
    483    479    484    485     1  0.0000000  0.6973333  3
    486    468    469    488     1  0.0000000  1.0460000  1
    486    468    469    488     1  0.0000000  0.0000000  3
    486    473    477    487     1  0.0000000  0.6973333  3
    488    469    489    490     1  0.0000000  0.6973333  3
    492    493    495    499     1  0.0000000  0.6508444  3
    492    493    513    514     1  0.0000000  1.0460000  1
    492    493    513    514     1  0.0000000  0.6694400  3
    492    503    508    509     1  0.0000000  1.0460000  1
    492    503    508    509     1  0.0000000  0.6694400  3
    492    510    497    500     1  0.0000000  1.6038667  3
    493    492    503    506     1  0.0000000  0.6508444  3
    493    492    503    507     1  0.0000000  0.6508444  3
    493    495    496    498     1  0.0000000  0.6508444  3
    493    495    502    504     1  0.0000000  1.0460000  1
    493    495    502    504     1  0.0000000  0.6694400  3
    494    492    493    495     1  0.0000000  0.6508444  3
    494    492    493    513     1  0.0000000  1.0460000  1
    494    492    493    513     1  0.0000000  0.0000000  3
    494    492    493    512     1  0.0000000  0.6508444  3
    494    492    503    508     1  0.0000000  1.0460000  1
    494    492    503    508     1  0.0000000  0.0000000  3
    494    492    503    506     1  0.0000000  0.6508444  3
    494    492    503    507     1  0.0000000  0.6508444  3
    494    492    510    497     1  0.0000000  1.6038667  3
    495    493    513    514     1  0.0000000  1.0460000  1
    495    493    513    514     1  0.0000000  0.6694400  3
    495    496    497    500     1  0.0000000  0.6508444  3
    495    496    515    505     1  0.0000000  1.2552000  3
    496    495    493    512     1  0.0000000  0.6508444  3
    496    495    502    504     1  0.0000000  1.0460000  1
    496    495    502    504     1  0.0000000  0.6694400  3
    496    497    501    511     1  0.0000000  1.0460000  1
    496    497    501    511     1  0.0000000  0.6694400  3
    497    496    495    499     1  0.0000000  0.6508444  3
    497    496    515    505     1  0.0000000  1.2552000  3
    498    496    495    502     1  0.0000000  1.0460000  1
    498    496    495    502     1  0.0000000  0.0000000  3
    498    496    495    499     1  0.0000000  0.6508444  3
    498    496    497    501     1  0.0000000  1.0460000  1
    498    496    497    501     1  0.0000000  0.0000000  3
    498    496    497    510     1  0.0000000  1.0460000  1
    498    496    497    510     1  0.0000000  0.0000000  3
    498    496    497    500     1  0.0000000  0.6508444  3
    498    496    515    505     1  0.0000000  1.2552000  3
    499    495    493    513     1  0.0000000  1.0460000  1
    499    495    493    513     1  0.0000000  0.0000000  3
    499    495    493    512     1  0.0000000  0.6508444  3
    499    495    496    515     1  0.0000000  0.6508444  3
    499    495    502    504     1  0.0000000  0.6973333  3
    500    497    496    515     1  0.0000000  0.6508444  3
    500    497    501    511     1  0.0000000  0.6973333  3
    502    495    493    512     1  0.0000000  1.0460000  1
    502    495    493    512     1  0.0000000  0.0000000  3
    503    492    493    512     1  0.0000000  0.6508444  3
    506    503    492    510     1  0.0000000  1.0460000  1
    506    503    492    510     1  0.0000000  0.0000000  3
    506    503    508    509     1  0.0000000  0.6973333  3
    507    503    492    510     1  0.0000000  1.0460000  1
    507    503    492    510     1  0.0000000  0.0000000  3
    507    503    508    509     1  0.0000000  0.6973333  3
    510    492    493    512     1  0.0000000  1.0460000  1
    510    492    493    512     1  0.0000000  0.0000000  3
    510    497    501    511     1  0.0000000  0.6973333  3
    512    493    513    514     1  0.0000000  0.6973333  3
    517    519    521    523     1  0.0000000  0.6508444  3
    517    519    521    524     1  0.0000000  0.6508444  3
    518    517    519    521     1  0.0000000  0.0000000  2
    518    517    519    520     1  0.0000000  0.0000000  2
    518    517    519    522     1  0.0000000  0.0000000  2
    519    521    525    590     1  0.0000000  0.6508444  3
    520    519    521    525     1  0.0000000  0.6508444  3
    520    519    521    523     1  0.0000000  0.6508444  3
    520    519    521    524     1  0.0000000  0.6508444  3
    521    525    526    535     1  0.0000000  0.6508444  3
    521    525    526    536     1  0.0000000  0.6508444  3
    521    525    527    528     1  0.0000000  0.6508444  3
    521    525    527    530     1  0.0000000  0.6508444  3
    522    519    521    525     1  0.0000000  0.6508444  3
    522    519    521    523     1  0.0000000  0.6508444  3
    522    519    521    524     1  0.0000000  0.6508444  3
    523    521    525    526     1  0.0000000  0.6508444  3
    523    521    525    527     1  0.0000000  0.6508444  3
    523    521    525    590     1  0.0000000  0.6508444  3
    524    521    525    526     1  0.0000000  0.6508444  3
    524    521    525    527     1  0.0000000  0.6508444  3
    524    521    525    590     1  0.0000000  0.6508444  3
    525    526    537    538     1  0.0000000  0.6508444  3
    525    526    537    539     1  0.0000000  0.6508444  3
    525    527    529    531     1  0.0000000  0.6508444  3
    525    527    529    532     1  0.0000000  0.6508444  3
    526    525    527    528     1  0.0000000  0.6508444  3
    526    525    527    530     1  0.0000000  0.6508444  3
    527    525    526    535     1  0.0000000  0.6508444  3
    527    525    526    536     1  0.0000000  0.6508444  3
    528    527    529    533     1  0.0000000  0.6508444  3
    528    527    529    531     1  0.0000000  0.6508444  3
    528    527    529    532     1  0.0000000  0.6508444  3
    528    527    525    590     1  0.0000000  0.6508444  3
    529    533    565    555     1  180.0000771  6.0668000  2
    529    533    565    555     1  180.0000771  1.4644000  4
    529    527    525    590     1  0.0000000  0.6508444  3
    530    527    529    533     1  0.0000000  0.6508444  3
    530    527    529    531     1  0.0000000  0.6508444  3
    530    527    529    532     1  0.0000000  0.6508444  3
    530    527    525    590     1  0.0000000  0.6508444  3
    531    529    533    534     1  0.0000000  3.3472000  1
    531    529    533    534     1  0.0000000  0.0000000  2
    531    529    533    534     1  180.0000771  0.3347200  3
    531    529    533    565     1  180.0000771  0.0000000  2
    532    529    533    534     1  0.0000000  3.3472000  1
    532    529    533    534     1  0.0000000  0.0000000  2
    532    529    533    534     1  180.0000771  0.3347200  3
    532    529    533    565     1  180.0000771  0.0000000  2
    533    565    546    548     1  0.0000000  1.2552000  3
    534    533    565    555     1  180.0000771  6.0668000  2
    534    533    565    555     1  180.0000771  1.4644000  4
    535    526    537    540     1  0.0000000  0.6508444  3
    535    526    537    538     1  0.0000000  0.6508444  3
    535    526    537    539     1  0.0000000  0.6508444  3
    535    526    525    590     1  0.0000000  0.6508444  3
    536    526    537    540     1  0.0000000  0.6508444  3
    536    526    537    538     1  0.0000000  0.6508444  3
    536    526    537    539     1  0.0000000  0.6508444  3
    536    526    525    590     1  0.0000000  0.6508444  3
    537    540    589    579     1  180.0000771  6.0668000  2
    537    540    589    579     1  180.0000771  1.4644000  4
    537    526    525    590     1  0.0000000  0.6508444  3
    538    537    540    541     1  0.0000000  3.3472000  1
    538    537    540    541     1  0.0000000  0.0000000  2
    538    537    540    541     1  180.0000771  0.3347200  3
    538    537    540    589     1  180.0000771  0.0000000  2
    539    537    540    541     1  0.0000000  3.3472000  1
    539    537    540    541     1  0.0000000  0.0000000  2
    539    537    540    541     1  180.0000771  0.3347200  3
    539    537    540    589     1  180.0000771  0.0000000  2
    540    589    570    572     1  0.0000000  1.2552000  3
    541    540    589    579     1  180.0000771  6.0668000  2
    541    540    589    579     1  180.0000771  1.4644000  4
    542    543    545    549     1  0.0000000  0.6508444  3
    542    543    563    564     1  0.0000000  1.0460000  1
    542    543    563    564     1  0.0000000  0.6694400  3
    542    553    558    559     1  0.0000000  1.0460000  1
    542    553    558    559     1  0.0000000  0.6694400  3
    542    560    547    550     1  0.0000000  1.6038667  3
    543    545    546    548     1  0.0000000  0.6508444  3
    543    545    552    554     1  0.0000000  1.0460000  1
    543    545    552    554     1  0.0000000  0.6694400  3
    543    542    553    556     1  0.0000000  0.6508444  3
    543    542    553    557     1  0.0000000  0.6508444  3
    544    542    543    545     1  0.0000000  0.6508444  3
    544    542    543    563     1  0.0000000  1.0460000  1
    544    542    543    563     1  0.0000000  0.0000000  3
    544    542    543    562     1  0.0000000  0.6508444  3
    544    542    553    558     1  0.0000000  1.0460000  1
    544    542    553    558     1  0.0000000  0.0000000  3
    544    542    553    556     1  0.0000000  0.6508444  3
    544    542    553    557     1  0.0000000  0.6508444  3
    544    542    560    547     1  0.0000000  1.6038667  3
    545    546    547    550     1  0.0000000  0.6508444  3
    545    546    565    555     1  0.0000000  1.2552000  3
    545    543    563    564     1  0.0000000  1.0460000  1
    545    543    563    564     1  0.0000000  0.6694400  3
    546    547    551    561     1  0.0000000  1.0460000  1
    546    547    551    561     1  0.0000000  0.6694400  3
    546    545    552    554     1  0.0000000  1.0460000  1
    546    545    552    554     1  0.0000000  0.6694400  3
    546    545    543    562     1  0.0000000  0.6508444  3
    547    546    565    555     1  0.0000000  1.2552000  3
    547    546    545    549     1  0.0000000  0.6508444  3
    548    546    547    551     1  0.0000000  1.0460000  1
    548    546    547    551     1  0.0000000  0.0000000  3
    548    546    547    560     1  0.0000000  1.0460000  1
    548    546    547    560     1  0.0000000  0.0000000  3
    548    546    547    550     1  0.0000000  0.6508444  3
    548    546    565    555     1  0.0000000  1.2552000  3
    548    546    545    552     1  0.0000000  1.0460000  1
    548    546    545    552     1  0.0000000  0.0000000  3
    548    546    545    549     1  0.0000000  0.6508444  3
    549    545    546    565     1  0.0000000  0.6508444  3
    549    545    552    554     1  0.0000000  0.6973333  3
    549    545    543    563     1  0.0000000  1.0460000  1
    549    545    543    563     1  0.0000000  0.0000000  3
    549    545    543    562     1  0.0000000  0.6508444  3
    550    547    551    561     1  0.0000000  0.6973333  3
    550    547    546    565     1  0.0000000  0.6508444  3
    552    545    543    562     1  0.0000000  1.0460000  1
    552    545    543    562     1  0.0000000  0.0000000  3
    553    542    543    562     1  0.0000000  0.6508444  3
    556    553    558    559     1  0.0000000  0.6973333  3
    556    553    542    560     1  0.0000000  1.0460000  1
    556    553    542    560     1  0.0000000  0.0000000  3
    557    553    558    559     1  0.0000000  0.6973333  3
    557    553    542    560     1  0.0000000  1.0460000  1
    557    553    542    560     1  0.0000000  0.0000000  3
    560    547    551    561     1  0.0000000  0.6973333  3
    560    542    543    562     1  0.0000000  1.0460000  1
    560    542    543    562     1  0.0000000  0.0000000  3
    562    543    563    564     1  0.0000000  0.6973333  3
    566    567    569    573     1  0.0000000  0.6508444  3
    566    567    587    588     1  0.0000000  1.0460000  1
    566    567    587    588     1  0.0000000  0.6694400  3
    566    577    582    583     1  0.0000000  1.0460000  1
    566    577    582    583     1  0.0000000  0.6694400  3
    566    584    571    574     1  0.0000000  1.6038667  3
    567    569    570    572     1  0.0000000  0.6508444  3
    567    569    576    578     1  0.0000000  1.0460000  1
    567    569    576    578     1  0.0000000  0.6694400  3
    567    566    577    580     1  0.0000000  0.6508444  3
    567    566    577    581     1  0.0000000  0.6508444  3
    568    566    567    569     1  0.0000000  0.6508444  3
    568    566    567    587     1  0.0000000  1.0460000  1
    568    566    567    587     1  0.0000000  0.0000000  3
    568    566    567    586     1  0.0000000  0.6508444  3
    568    566    577    582     1  0.0000000  1.0460000  1
    568    566    577    582     1  0.0000000  0.0000000  3
    568    566    577    580     1  0.0000000  0.6508444  3
    568    566    577    581     1  0.0000000  0.6508444  3
    568    566    584    571     1  0.0000000  1.6038667  3
    569    570    571    574     1  0.0000000  0.6508444  3
    569    570    589    579     1  0.0000000  1.2552000  3
    569    567    587    588     1  0.0000000  1.0460000  1
    569    567    587    588     1  0.0000000  0.6694400  3
    570    571    575    585     1  0.0000000  1.0460000  1
    570    571    575    585     1  0.0000000  0.6694400  3
    570    569    576    578     1  0.0000000  1.0460000  1
    570    569    576    578     1  0.0000000  0.6694400  3
    570    569    567    586     1  0.0000000  0.6508444  3
    571    570    589    579     1  0.0000000  1.2552000  3
    571    570    569    573     1  0.0000000  0.6508444  3
    572    570    571    575     1  0.0000000  1.0460000  1
    572    570    571    575     1  0.0000000  0.0000000  3
    572    570    571    584     1  0.0000000  1.0460000  1
    572    570    571    584     1  0.0000000  0.0000000  3
    572    570    571    574     1  0.0000000  0.6508444  3
    572    570    589    579     1  0.0000000  1.2552000  3
    572    570    569    576     1  0.0000000  1.0460000  1
    572    570    569    576     1  0.0000000  0.0000000  3
    572    570    569    573     1  0.0000000  0.6508444  3
    573    569    570    589     1  0.0000000  0.6508444  3
    573    569    576    578     1  0.0000000  0.6973333  3
    573    569    567    587     1  0.0000000  1.0460000  1
    573    569    567    587     1  0.0000000  0.0000000  3
    573    569    567    586     1  0.0000000  0.6508444  3
    574    571    575    585     1  0.0000000  0.6973333  3
    574    571    570    589     1  0.0000000  0.6508444  3
    576    569    567    586     1  0.0000000  1.0460000  1
    576    569    567    586     1  0.0000000  0.0000000  3
    577    566    567    586     1  0.0000000  0.6508444  3
    580    577    582    583     1  0.0000000  0.6973333  3
    580    577    566    584     1  0.0000000  1.0460000  1
    580    577    566    584     1  0.0000000  0.0000000  3
    581    577    582    583     1  0.0000000  0.6973333  3
    581    577    566    584     1  0.0000000  1.0460000  1
    581    577    566    584     1  0.0000000  0.0000000  3
    584    571    575    585     1  0.0000000  0.6973333  3
    584    566    567    586     1  0.0000000  1.0460000  1
    584    566    567    586     1  0.0000000  0.0000000  3
    586    567    587    588     1  0.0000000  0.6973333  3
    591    593    595    597     1  0.0000000  0.6508444  3
    591    593    595    598     1  0.0000000  0.6508444  3
    592    591    593    595     1  0.0000000  0.0000000  2
    592    591    593    594     1  0.0000000  0.0000000  2
    592    591    593    596     1  0.0000000  0.0000000  2
    593    595    599    664     1  0.0000000  0.6508444  3
    594    593    595    599     1  0.0000000  0.6508444  3
    594    593    595    597     1  0.0000000  0.6508444  3
    594    593    595    598     1  0.0000000  0.6508444  3
    595    599    600    609     1  0.0000000  0.6508444  3
    595    599    600    610     1  0.0000000  0.6508444  3
    595    599    601    602     1  0.0000000  0.6508444  3
    595    599    601    604     1  0.0000000  0.6508444  3
    596    593    595    599     1  0.0000000  0.6508444  3
    596    593    595    597     1  0.0000000  0.6508444  3
    596    593    595    598     1  0.0000000  0.6508444  3
    597    595    599    600     1  0.0000000  0.6508444  3
    597    595    599    601     1  0.0000000  0.6508444  3
    597    595    599    664     1  0.0000000  0.6508444  3
    598    595    599    600     1  0.0000000  0.6508444  3
    598    595    599    601     1  0.0000000  0.6508444  3
    598    595    599    664     1  0.0000000  0.6508444  3
    599    600    611    612     1  0.0000000  0.6508444  3
    599    600    611    613     1  0.0000000  0.6508444  3
    599    601    603    605     1  0.0000000  0.6508444  3
    599    601    603    606     1  0.0000000  0.6508444  3
    600    599    601    602     1  0.0000000  0.6508444  3
    600    599    601    604     1  0.0000000  0.6508444  3
    601    599    600    609     1  0.0000000  0.6508444  3
    601    599    600    610     1  0.0000000  0.6508444  3
    602    601    599    664     1  0.0000000  0.6508444  3
    602    601    603    607     1  0.0000000  0.6508444  3
    602    601    603    605     1  0.0000000  0.6508444  3
    602    601    603    606     1  0.0000000  0.6508444  3
    603    601    599    664     1  0.0000000  0.6508444  3
    603    607    639    629     1  180.0000771  6.0668000  2
    603    607    639    629     1  180.0000771  1.4644000  4
    604    601    599    664     1  0.0000000  0.6508444  3
    604    601    603    607     1  0.0000000  0.6508444  3
    604    601    603    605     1  0.0000000  0.6508444  3
    604    601    603    606     1  0.0000000  0.6508444  3
    605    603    607    608     1  0.0000000  3.3472000  1
    605    603    607    608     1  0.0000000  0.0000000  2
    605    603    607    608     1  180.0000771  0.3347200  3
    605    603    607    639     1  180.0000771  0.0000000  2
    606    603    607    608     1  0.0000000  3.3472000  1
    606    603    607    608     1  0.0000000  0.0000000  2
    606    603    607    608     1  180.0000771  0.3347200  3
    606    603    607    639     1  180.0000771  0.0000000  2
    607    639    620    622     1  0.0000000  1.2552000  3
    608    607    639    629     1  180.0000771  6.0668000  2
    608    607    639    629     1  180.0000771  1.4644000  4
    609    600    599    664     1  0.0000000  0.6508444  3
    609    600    611    614     1  0.0000000  0.6508444  3
    609    600    611    612     1  0.0000000  0.6508444  3
    609    600    611    613     1  0.0000000  0.6508444  3
    610    600    599    664     1  0.0000000  0.6508444  3
    610    600    611    614     1  0.0000000  0.6508444  3
    610    600    611    612     1  0.0000000  0.6508444  3
    610    600    611    613     1  0.0000000  0.6508444  3
    611    600    599    664     1  0.0000000  0.6508444  3
    611    614    663    653     1  180.0000771  6.0668000  2
    611    614    663    653     1  180.0000771  1.4644000  4
    612    611    614    615     1  0.0000000  3.3472000  1
    612    611    614    615     1  0.0000000  0.0000000  2
    612    611    614    615     1  180.0000771  0.3347200  3
    612    611    614    663     1  180.0000771  0.0000000  2
    613    611    614    615     1  0.0000000  3.3472000  1
    613    611    614    615     1  0.0000000  0.0000000  2
    613    611    614    615     1  180.0000771  0.3347200  3
    613    611    614    663     1  180.0000771  0.0000000  2
    614    663    644    646     1  0.0000000  1.2552000  3
    615    614    663    653     1  180.0000771  6.0668000  2
    615    614    663    653     1  180.0000771  1.4644000  4
    616    617    619    623     1  0.0000000  0.6508444  3
    616    617    637    638     1  0.0000000  1.0460000  1
    616    617    637    638     1  0.0000000  0.6694400  3
    616    627    632    633     1  0.0000000  1.0460000  1
    616    627    632    633     1  0.0000000  0.6694400  3
    616    634    621    624     1  0.0000000  1.6038667  3
    617    616    627    630     1  0.0000000  0.6508444  3
    617    616    627    631     1  0.0000000  0.6508444  3
    617    619    620    622     1  0.0000000  0.6508444  3
    617    619    626    628     1  0.0000000  1.0460000  1
    617    619    626    628     1  0.0000000  0.6694400  3
    618    616    617    619     1  0.0000000  0.6508444  3
    618    616    617    637     1  0.0000000  1.0460000  1
    618    616    617    637     1  0.0000000  0.0000000  3
    618    616    617    636     1  0.0000000  0.6508444  3
    618    616    627    632     1  0.0000000  1.0460000  1
    618    616    627    632     1  0.0000000  0.0000000  3
    618    616    627    630     1  0.0000000  0.6508444  3
    618    616    627    631     1  0.0000000  0.6508444  3
    618    616    634    621     1  0.0000000  1.6038667  3
    619    617    637    638     1  0.0000000  1.0460000  1
    619    617    637    638     1  0.0000000  0.6694400  3
    619    620    621    624     1  0.0000000  0.6508444  3
    619    620    639    629     1  0.0000000  1.2552000  3
    620    619    617    636     1  0.0000000  0.6508444  3
    620    619    626    628     1  0.0000000  1.0460000  1
    620    619    626    628     1  0.0000000  0.6694400  3
    620    621    625    635     1  0.0000000  1.0460000  1
    620    621    625    635     1  0.0000000  0.6694400  3
    621    620    619    623     1  0.0000000  0.6508444  3
    621    620    639    629     1  0.0000000  1.2552000  3
    622    620    619    626     1  0.0000000  1.0460000  1
    622    620    619    626     1  0.0000000  0.0000000  3
    622    620    619    623     1  0.0000000  0.6508444  3
    622    620    621    625     1  0.0000000  1.0460000  1
    622    620    621    625     1  0.0000000  0.0000000  3
    622    620    621    634     1  0.0000000  1.0460000  1
    622    620    621    634     1  0.0000000  0.0000000  3
    622    620    621    624     1  0.0000000  0.6508444  3
    622    620    639    629     1  0.0000000  1.2552000  3
    623    619    617    637     1  0.0000000  1.0460000  1
    623    619    617    637     1  0.0000000  0.0000000  3
    623    619    617    636     1  0.0000000  0.6508444  3
    623    619    620    639     1  0.0000000  0.6508444  3
    623    619    626    628     1  0.0000000  0.6973333  3
    624    621    620    639     1  0.0000000  0.6508444  3
    624    621    625    635     1  0.0000000  0.6973333  3
    626    619    617    636     1  0.0000000  1.0460000  1
    626    619    617    636     1  0.0000000  0.0000000  3
    627    616    617    636     1  0.0000000  0.6508444  3
    630    627    616    634     1  0.0000000  1.0460000  1
    630    627    616    634     1  0.0000000  0.0000000  3
    630    627    632    633     1  0.0000000  0.6973333  3
    631    627    616    634     1  0.0000000  1.0460000  1
    631    627    616    634     1  0.0000000  0.0000000  3
    631    627    632    633     1  0.0000000  0.6973333  3
    634    616    617    636     1  0.0000000  1.0460000  1
    634    616    617    636     1  0.0000000  0.0000000  3
    634    621    625    635     1  0.0000000  0.6973333  3
    636    617    637    638     1  0.0000000  0.6973333  3
    640    641    643    647     1  0.0000000  0.6508444  3
    640    641    661    662     1  0.0000000  1.0460000  1
    640    641    661    662     1  0.0000000  0.6694400  3
    640    651    656    657     1  0.0000000  1.0460000  1
    640    651    656    657     1  0.0000000  0.6694400  3
    640    658    645    648     1  0.0000000  1.6038667  3
    641    640    651    654     1  0.0000000  0.6508444  3
    641    640    651    655     1  0.0000000  0.6508444  3
    641    643    644    646     1  0.0000000  0.6508444  3
    641    643    650    652     1  0.0000000  1.0460000  1
    641    643    650    652     1  0.0000000  0.6694400  3
    642    640    641    643     1  0.0000000  0.6508444  3
    642    640    641    661     1  0.0000000  1.0460000  1
    642    640    641    661     1  0.0000000  0.0000000  3
    642    640    641    660     1  0.0000000  0.6508444  3
    642    640    651    656     1  0.0000000  1.0460000  1
    642    640    651    656     1  0.0000000  0.0000000  3
    642    640    651    654     1  0.0000000  0.6508444  3
    642    640    651    655     1  0.0000000  0.6508444  3
    642    640    658    645     1  0.0000000  1.6038667  3
    643    641    661    662     1  0.0000000  1.0460000  1
    643    641    661    662     1  0.0000000  0.6694400  3
    643    644    645    648     1  0.0000000  0.6508444  3
    643    644    663    653     1  0.0000000  1.2552000  3
    644    643    641    660     1  0.0000000  0.6508444  3
    644    643    650    652     1  0.0000000  1.0460000  1
    644    643    650    652     1  0.0000000  0.6694400  3
    644    645    649    659     1  0.0000000  1.0460000  1
    644    645    649    659     1  0.0000000  0.6694400  3
    645    644    643    647     1  0.0000000  0.6508444  3
    645    644    663    653     1  0.0000000  1.2552000  3
    646    644    643    650     1  0.0000000  1.0460000  1
    646    644    643    650     1  0.0000000  0.0000000  3
    646    644    643    647     1  0.0000000  0.6508444  3
    646    644    645    649     1  0.0000000  1.0460000  1
    646    644    645    649     1  0.0000000  0.0000000  3
    646    644    645    658     1  0.0000000  1.0460000  1
    646    644    645    658     1  0.0000000  0.0000000  3
    646    644    645    648     1  0.0000000  0.6508444  3
    646    644    663    653     1  0.0000000  1.2552000  3
    647    643    641    661     1  0.0000000  1.0460000  1
    647    643    641    661     1  0.0000000  0.0000000  3
    647    643    641    660     1  0.0000000  0.6508444  3
    647    643    644    663     1  0.0000000  0.6508444  3
    647    643    650    652     1  0.0000000  0.6973333  3
    648    645    644    663     1  0.0000000  0.6508444  3
    648    645    649    659     1  0.0000000  0.6973333  3
    650    643    641    660     1  0.0000000  1.0460000  1
    650    643    641    660     1  0.0000000  0.0000000  3
    651    640    641    660     1  0.0000000  0.6508444  3
    654    651    640    658     1  0.0000000  1.0460000  1
    654    651    640    658     1  0.0000000  0.0000000  3
    654    651    656    657     1  0.0000000  0.6973333  3
    655    651    640    658     1  0.0000000  1.0460000  1
    655    651    640    658     1  0.0000000  0.0000000  3
    655    651    656    657     1  0.0000000  0.6973333  3
    658    640    641    660     1  0.0000000  1.0460000  1
    658    640    641    660     1  0.0000000  0.0000000  3
    658    645    649    659     1  0.0000000  0.6973333  3
    660    641    661    662     1  0.0000000  0.6973333  3
    665    667    669    671     1  0.0000000  0.6508444  3
    665    667    669    672     1  0.0000000  0.6508444  3
    666    665    667    669     1  0.0000000  0.0000000  2
    666    665    667    668     1  0.0000000  0.0000000  2
    666    665    667    670     1  0.0000000  0.0000000  2
    667    669    673    738     1  0.0000000  0.6508444  3
    668    667    669    673     1  0.0000000  0.6508444  3
    668    667    669    671     1  0.0000000  0.6508444  3
    668    667    669    672     1  0.0000000  0.6508444  3
    669    673    674    683     1  0.0000000  0.6508444  3
    669    673    674    684     1  0.0000000  0.6508444  3
    669    673    675    676     1  0.0000000  0.6508444  3
    669    673    675    678     1  0.0000000  0.6508444  3
    670    667    669    673     1  0.0000000  0.6508444  3
    670    667    669    671     1  0.0000000  0.6508444  3
    670    667    669    672     1  0.0000000  0.6508444  3
    671    669    673    674     1  0.0000000  0.6508444  3
    671    669    673    675     1  0.0000000  0.6508444  3
    671    669    673    738     1  0.0000000  0.6508444  3
    672    669    673    674     1  0.0000000  0.6508444  3
    672    669    673    675     1  0.0000000  0.6508444  3
    672    669    673    738     1  0.0000000  0.6508444  3
    673    674    685    686     1  0.0000000  0.6508444  3
    673    674    685    687     1  0.0000000  0.6508444  3
    673    675    677    679     1  0.0000000  0.6508444  3
    673    675    677    680     1  0.0000000  0.6508444  3
    674    673    675    676     1  0.0000000  0.6508444  3
    674    673    675    678     1  0.0000000  0.6508444  3
    675    673    674    683     1  0.0000000  0.6508444  3
    675    673    674    684     1  0.0000000  0.6508444  3
    676    675    677    681     1  0.0000000  0.6508444  3
    676    675    677    679     1  0.0000000  0.6508444  3
    676    675    677    680     1  0.0000000  0.6508444  3
    676    675    673    738     1  0.0000000  0.6508444  3
    677    681    713    703     1  180.0000771  6.0668000  2
    677    681    713    703     1  180.0000771  1.4644000  4
    677    675    673    738     1  0.0000000  0.6508444  3
    678    675    677    681     1  0.0000000  0.6508444  3
    678    675    677    679     1  0.0000000  0.6508444  3
    678    675    677    680     1  0.0000000  0.6508444  3
    678    675    673    738     1  0.0000000  0.6508444  3
    679    677    681    682     1  0.0000000  3.3472000  1
    679    677    681    682     1  0.0000000  0.0000000  2
    679    677    681    682     1  180.0000771  0.3347200  3
    679    677    681    713     1  180.0000771  0.0000000  2
    680    677    681    682     1  0.0000000  3.3472000  1
    680    677    681    682     1  0.0000000  0.0000000  2
    680    677    681    682     1  180.0000771  0.3347200  3
    680    677    681    713     1  180.0000771  0.0000000  2
    681    713    694    696     1  0.0000000  1.2552000  3
    682    681    713    703     1  180.0000771  6.0668000  2
    682    681    713    703     1  180.0000771  1.4644000  4
    683    674    685    688     1  0.0000000  0.6508444  3
    683    674    685    686     1  0.0000000  0.6508444  3
    683    674    685    687     1  0.0000000  0.6508444  3
    683    674    673    738     1  0.0000000  0.6508444  3
    684    674    685    688     1  0.0000000  0.6508444  3
    684    674    685    686     1  0.0000000  0.6508444  3
    684    674    685    687     1  0.0000000  0.6508444  3
    684    674    673    738     1  0.0000000  0.6508444  3
    685    688    737    727     1  180.0000771  6.0668000  2
    685    688    737    727     1  180.0000771  1.4644000  4
    685    674    673    738     1  0.0000000  0.6508444  3
    686    685    688    689     1  0.0000000  3.3472000  1
    686    685    688    689     1  0.0000000  0.0000000  2
    686    685    688    689     1  180.0000771  0.3347200  3
    686    685    688    737     1  180.0000771  0.0000000  2
    687    685    688    689     1  0.0000000  3.3472000  1
    687    685    688    689     1  0.0000000  0.0000000  2
    687    685    688    689     1  180.0000771  0.3347200  3
    687    685    688    737     1  180.0000771  0.0000000  2
    688    737    718    720     1  0.0000000  1.2552000  3
    689    688    737    727     1  180.0000771  6.0668000  2
    689    688    737    727     1  180.0000771  1.4644000  4
    690    691    693    697     1  0.0000000  0.6508444  3
    690    691    711    712     1  0.0000000  1.0460000  1
    690    691    711    712     1  0.0000000  0.6694400  3
    690    701    706    707     1  0.0000000  1.0460000  1
    690    701    706    707     1  0.0000000  0.6694400  3
    690    708    695    698     1  0.0000000  1.6038667  3
    691    693    694    696     1  0.0000000  0.6508444  3
    691    693    700    702     1  0.0000000  1.0460000  1
    691    693    700    702     1  0.0000000  0.6694400  3
    691    690    701    704     1  0.0000000  0.6508444  3
    691    690    701    705     1  0.0000000  0.6508444  3
    692    690    691    693     1  0.0000000  0.6508444  3
    692    690    691    711     1  0.0000000  1.0460000  1
    692    690    691    711     1  0.0000000  0.0000000  3
    692    690    691    710     1  0.0000000  0.6508444  3
    692    690    701    706     1  0.0000000  1.0460000  1
    692    690    701    706     1  0.0000000  0.0000000  3
    692    690    701    704     1  0.0000000  0.6508444  3
    692    690    701    705     1  0.0000000  0.6508444  3
    692    690    708    695     1  0.0000000  1.6038667  3
    693    694    695    698     1  0.0000000  0.6508444  3
    693    694    713    703     1  0.0000000  1.2552000  3
    693    691    711    712     1  0.0000000  1.0460000  1
    693    691    711    712     1  0.0000000  0.6694400  3
    694    695    699    709     1  0.0000000  1.0460000  1
    694    695    699    709     1  0.0000000  0.6694400  3
    694    693    700    702     1  0.0000000  1.0460000  1
    694    693    700    702     1  0.0000000  0.6694400  3
    694    693    691    710     1  0.0000000  0.6508444  3
    695    694    713    703     1  0.0000000  1.2552000  3
    695    694    693    697     1  0.0000000  0.6508444  3
    696    694    695    699     1  0.0000000  1.0460000  1
    696    694    695    699     1  0.0000000  0.0000000  3
    696    694    695    708     1  0.0000000  1.0460000  1
    696    694    695    708     1  0.0000000  0.0000000  3
    696    694    695    698     1  0.0000000  0.6508444  3
    696    694    713    703     1  0.0000000  1.2552000  3
    696    694    693    700     1  0.0000000  1.0460000  1
    696    694    693    700     1  0.0000000  0.0000000  3
    696    694    693    697     1  0.0000000  0.6508444  3
    697    693    694    713     1  0.0000000  0.6508444  3
    697    693    700    702     1  0.0000000  0.6973333  3
    697    693    691    711     1  0.0000000  1.0460000  1
    697    693    691    711     1  0.0000000  0.0000000  3
    697    693    691    710     1  0.0000000  0.6508444  3
    698    695    699    709     1  0.0000000  0.6973333  3
    698    695    694    713     1  0.0000000  0.6508444  3
    700    693    691    710     1  0.0000000  1.0460000  1
    700    693    691    710     1  0.0000000  0.0000000  3
    701    690    691    710     1  0.0000000  0.6508444  3
    704    701    706    707     1  0.0000000  0.6973333  3
    704    701    690    708     1  0.0000000  1.0460000  1
    704    701    690    708     1  0.0000000  0.0000000  3
    705    701    706    707     1  0.0000000  0.6973333  3
    705    701    690    708     1  0.0000000  1.0460000  1
    705    701    690    708     1  0.0000000  0.0000000  3
    708    695    699    709     1  0.0000000  0.6973333  3
    708    690    691    710     1  0.0000000  1.0460000  1
    708    690    691    710     1  0.0000000  0.0000000  3
    710    691    711    712     1  0.0000000  0.6973333  3
    714    715    717    721     1  0.0000000  0.6508444  3
    714    715    735    736     1  0.0000000  1.0460000  1
    714    715    735    736     1  0.0000000  0.6694400  3
    714    725    730    731     1  0.0000000  1.0460000  1
    714    725    730    731     1  0.0000000  0.6694400  3
    714    732    719    722     1  0.0000000  1.6038667  3
    715    717    718    720     1  0.0000000  0.6508444  3
    715    717    724    726     1  0.0000000  1.0460000  1
    715    717    724    726     1  0.0000000  0.6694400  3
    715    714    725    728     1  0.0000000  0.6508444  3
    715    714    725    729     1  0.0000000  0.6508444  3
    716    714    715    717     1  0.0000000  0.6508444  3
    716    714    715    735     1  0.0000000  1.0460000  1
    716    714    715    735     1  0.0000000  0.0000000  3
    716    714    715    734     1  0.0000000  0.6508444  3
    716    714    725    730     1  0.0000000  1.0460000  1
    716    714    725    730     1  0.0000000  0.0000000  3
    716    714    725    728     1  0.0000000  0.6508444  3
    716    714    725    729     1  0.0000000  0.6508444  3
    716    714    732    719     1  0.0000000  1.6038667  3
    717    718    719    722     1  0.0000000  0.6508444  3
    717    718    737    727     1  0.0000000  1.2552000  3
    717    715    735    736     1  0.0000000  1.0460000  1
    717    715    735    736     1  0.0000000  0.6694400  3
    718    719    723    733     1  0.0000000  1.0460000  1
    718    719    723    733     1  0.0000000  0.6694400  3
    718    717    724    726     1  0.0000000  1.0460000  1
    718    717    724    726     1  0.0000000  0.6694400  3
    718    717    715    734     1  0.0000000  0.6508444  3
    719    718    737    727     1  0.0000000  1.2552000  3
    719    718    717    721     1  0.0000000  0.6508444  3
    720    718    719    723     1  0.0000000  1.0460000  1
    720    718    719    723     1  0.0000000  0.0000000  3
    720    718    719    732     1  0.0000000  1.0460000  1
    720    718    719    732     1  0.0000000  0.0000000  3
    720    718    719    722     1  0.0000000  0.6508444  3
    720    718    737    727     1  0.0000000  1.2552000  3
    720    718    717    724     1  0.0000000  1.0460000  1
    720    718    717    724     1  0.0000000  0.0000000  3
    720    718    717    721     1  0.0000000  0.6508444  3
    721    717    718    737     1  0.0000000  0.6508444  3
    721    717    724    726     1  0.0000000  0.6973333  3
    721    717    715    735     1  0.0000000  1.0460000  1
    721    717    715    735     1  0.0000000  0.0000000  3
    721    717    715    734     1  0.0000000  0.6508444  3
    722    719    723    733     1  0.0000000  0.6973333  3
    722    719    718    737     1  0.0000000  0.6508444  3
    724    717    715    734     1  0.0000000  1.0460000  1
    724    717    715    734     1  0.0000000  0.0000000  3
    725    714    715    734     1  0.0000000  0.6508444  3
    728    725    730    731     1  0.0000000  0.6973333  3
    728    725    714    732     1  0.0000000  1.0460000  1
    728    725    714    732     1  0.0000000  0.0000000  3
    729    725    730    731     1  0.0000000  0.6973333  3
    729    725    714    732     1  0.0000000  1.0460000  1
    729    725    714    732     1  0.0000000  0.0000000  3
    732    719    723    733     1  0.0000000  0.6973333  3
    732    714    715    734     1  0.0000000  1.0460000  1
    732    714    715    734     1  0.0000000  0.0000000  3
    734    715    735    736     1  0.0000000  0.6973333  3
     10     51     52     67     4  180.0000771  4.6024000  2
     12     77     78     93     4  180.0000771  4.6024000  2
     14    103    104    119     4  180.0000771  4.6024000  2
     16    129    130    145     4  180.0000771  4.6024000  2
     47    149    147    148     4  180.0000771  4.6024000  2
     49    223    221    222     4  180.0000771  4.6024000  2
     73    297    295    296     4  180.0000771  4.6024000  2
     75    371    369    370     4  180.0000771  4.6024000  2
     99    445    443    444     4  180.0000771  4.6024000  2
    101    519    517    518     4  180.0000771  4.6024000  2
    125    593    591    592     4  180.0000771  4.6024000  2
    127    667    665    666     4  180.0000771  4.6024000  2

;[ system ]
;; Name
;Generic title
;
;[ molecules ]
;; Compound       #mols
;system1              1
