;
;   File g3.5Ncore_coo-petim.itp  was generated
;   By user: sairam (1000)
;   On host: sairam
;   At date: Sat. August  6 23:20:00 2023
;
;   This is a standalone topology file
;
;   Created by:
;   ParmEd:       amb2gro_top_gro.py, VERSION 3.4.1
;   Executable:   amb2gro_top_gro.py
;   Library dir:  /usr/local/gromacs/share/gromacs/top
;   Command line:
;     ./amb2gro_top_gro.py -p g3.5Ncore_coo-petim.prmtop -c g3.5Ncore_coo-petim.inpcrd -t g3.5Ncore_coo-petim.itp -g g3.5Ncore_coo-petim.gro -b g3.5Ncore_coo-petim.pdb
;
;
;[ defaults ]
;; nbfunc        comb-rule       gen-pairs       fudgeLJ fudgeQQ
;1               2               yes             0.5          0.83333333  
;
;[ atomtypes ]
;; name    at.num    mass    charge ptype  sigma      epsilon
;n3             7  14.010000  0.00000000  A     0.32499985        0.71128
;c3             6  12.010000  0.00000000  A     0.33996695      0.4577296
;h1             1   1.008000  0.00000000  A      0.2471353      0.0656888
;hc             1   1.008000  0.00000000  A     0.26495328      0.0656888
;os             8  16.000000  0.00000000  A     0.30000123        0.71128
;c              6  12.010000  0.00000000  A     0.33996695       0.359824
;o              8  16.000000  0.00000000  A     0.29599219        0.87864
;

[ moleculetype ]
; Name            nrexcl
g3.5Ncore_coo-petim    3

[ atoms ]
;   nr       type  resnr residue  atom   cgnr    charge       mass  typeB    chargeB      massB
; residue    1 aaa rtp aaa q 0.0
    1         n3      1    aaa     N1      1 -0.65416500  14.010000   ; qtot -0.654165
    2         c3      1    aaa     C1      2 0.05178400  12.010000   ; qtot -0.602381
    3         h1      1    aaa     H1      3 0.06475500   1.008000   ; qtot -0.537626
    4         h1      1    aaa     H2      4 0.06475500   1.008000   ; qtot -0.472871
    5         c3      1    aaa     C2      5 0.05178400  12.010000   ; qtot -0.421087
    6         h1      1    aaa     H3      6 0.06475500   1.008000   ; qtot -0.356332
    7         h1      1    aaa     H4      7 0.06475500   1.008000   ; qtot -0.291577
    8         c3      1    aaa     C3      8 0.05178400  12.010000   ; qtot -0.239793
    9         h1      1    aaa     H5      9 0.06475500   1.008000   ; qtot -0.175038
   10         h1      1    aaa     H6     10 0.06475500   1.008000   ; qtot -0.110283
   11         c3      1    aaa     C4     11 0.07871100  12.010000   ; qtot -0.031572
   12         hc      1    aaa     H7     12 0.08683700   1.008000   ; qtot 0.055265
   13         hc      1    aaa     H8     13 0.08683700   1.008000   ; qtot 0.142102
   14         c3      1    aaa     C5     14 0.07871100  12.010000   ; qtot 0.220813
   15         hc      1    aaa     H9     15 0.08683700   1.008000   ; qtot 0.307650
   16         hc      1    aaa    H10     16 0.08683700   1.008000   ; qtot 0.394487
   17         c3      1    aaa     C6     17 0.07871100  12.010000   ; qtot 0.473198
   18         hc      1    aaa    H11     18 0.08683700   1.008000   ; qtot 0.560035
   19         hc      1    aaa    H12     19 0.08683700   1.008000   ; qtot 0.646872
   20         c3      1    aaa     C7     20 -0.74941200  12.010000   ; qtot -0.102540
   21         h1      1    aaa    H13     21 0.26689400   1.008000   ; qtot 0.164354
   22         h1      1    aaa    H14     22 0.26689400   1.008000   ; qtot 0.431248
   23         c3      1    aaa     C8     23 -0.74941200  12.010000   ; qtot -0.318164
   24         h1      1    aaa    H15     24 0.26689400   1.008000   ; qtot -0.051270
   25         h1      1    aaa    H16     25 0.26689400   1.008000   ; qtot 0.215624
   26         c3      1    aaa     C9     26 -0.74941200  12.010000   ; qtot -0.533788
   27         h1      1    aaa    H17     27 0.26689400   1.008000   ; qtot -0.266894
   28         h1      1    aaa    H18     28 0.26689400   1.008000   ; qtot 0.000000
; residue    2 bbb rtp bbb q -0.0
   29         n3      2    bbb     N1     29 -0.59685800  14.010000   ; qtot -0.596858
   30         c3      2    bbb     C1     30 0.10137000  12.010000   ; qtot -0.495488
   31         h1      2    bbb     H1     31 0.04411300   1.008000   ; qtot -0.451375
   32         h1      2    bbb     H2     32 0.04411300   1.008000   ; qtot -0.407262
   33         c3      2    bbb     C2     33 0.10137000  12.010000   ; qtot -0.305892
   34         h1      2    bbb     H3     34 0.04411300   1.008000   ; qtot -0.261779
   35         h1      2    bbb     H4     35 0.04411300   1.008000   ; qtot -0.217666
   36         c3      2    bbb     C3     36 -0.00195300  12.010000   ; qtot -0.219619
   37         h1      2    bbb     H5     37 0.05064400   1.008000   ; qtot -0.168975
   38         h1      2    bbb     H6     38 0.05064400   1.008000   ; qtot -0.118331
   39         c3      2    bbb     C4     39 -0.01612100  12.010000   ; qtot -0.134452
   40         hc      2    bbb     H7     40 0.04936100   1.008000   ; qtot -0.085091
   41         hc      2    bbb     H8     41 0.04936100   1.008000   ; qtot -0.035730
   42         c3      2    bbb     C5     42 0.11363000  12.010000   ; qtot 0.077900
   43         hc      2    bbb     H9     43 0.06265900   1.008000   ; qtot 0.140559
   44         hc      2    bbb    H10     44 0.06265900   1.008000   ; qtot 0.203218
   45         c3      2    bbb     C6     45 0.11363000  12.010000   ; qtot 0.316848
   46         hc      2    bbb    H11     46 0.06265900   1.008000   ; qtot 0.379507
   47         hc      2    bbb    H12     47 0.06265900   1.008000   ; qtot 0.442166
   48         c3      2    bbb     C7     48 0.05858200  12.010000   ; qtot 0.500748
   49         h1      2    bbb    H13     49 0.06123400   1.008000   ; qtot 0.561982
   50         h1      2    bbb    H14     50 0.06123400   1.008000   ; qtot 0.623216
   51         c3      2    bbb     C8     51 -0.72423400  12.010000   ; qtot -0.101018
   52         h1      2    bbb    H15     52 0.25637600   1.008000   ; qtot 0.155358
   53         h1      2    bbb    H16     53 0.25637600   1.008000   ; qtot 0.411734
   54         c3      2    bbb     C9     54 -0.72423400  12.010000   ; qtot -0.312500
   55         h1      2    bbb    H17     55 0.25637600   1.008000   ; qtot -0.056124
   56         h1      2    bbb    H18     56 0.25637600   1.008000   ; qtot 0.200252
   57         os      2    bbb     O1     57 -0.20025300  16.000000   ; qtot -0.000001
; residue    3 bbb rtp bbb q -0.0
   58         n3      3    bbb     N1     58 -0.59685800  14.010000   ; qtot -0.596859
   59         c3      3    bbb     C1     59 0.10137000  12.010000   ; qtot -0.495489
   60         h1      3    bbb     H1     60 0.04411300   1.008000   ; qtot -0.451376
   61         h1      3    bbb     H2     61 0.04411300   1.008000   ; qtot -0.407263
   62         c3      3    bbb     C2     62 0.10137000  12.010000   ; qtot -0.305893
   63         h1      3    bbb     H3     63 0.04411300   1.008000   ; qtot -0.261780
   64         h1      3    bbb     H4     64 0.04411300   1.008000   ; qtot -0.217667
   65         c3      3    bbb     C3     65 -0.00195300  12.010000   ; qtot -0.219620
   66         h1      3    bbb     H5     66 0.05064400   1.008000   ; qtot -0.168976
   67         h1      3    bbb     H6     67 0.05064400   1.008000   ; qtot -0.118332
   68         c3      3    bbb     C4     68 -0.01612100  12.010000   ; qtot -0.134453
   69         hc      3    bbb     H7     69 0.04936100   1.008000   ; qtot -0.085092
   70         hc      3    bbb     H8     70 0.04936100   1.008000   ; qtot -0.035731
   71         c3      3    bbb     C5     71 0.11363000  12.010000   ; qtot 0.077899
   72         hc      3    bbb     H9     72 0.06265900   1.008000   ; qtot 0.140558
   73         hc      3    bbb    H10     73 0.06265900   1.008000   ; qtot 0.203217
   74         c3      3    bbb     C6     74 0.11363000  12.010000   ; qtot 0.316847
   75         hc      3    bbb    H11     75 0.06265900   1.008000   ; qtot 0.379506
   76         hc      3    bbb    H12     76 0.06265900   1.008000   ; qtot 0.442165
   77         c3      3    bbb     C7     77 0.05858200  12.010000   ; qtot 0.500747
   78         h1      3    bbb    H13     78 0.06123400   1.008000   ; qtot 0.561981
   79         h1      3    bbb    H14     79 0.06123400   1.008000   ; qtot 0.623215
   80         c3      3    bbb     C8     80 -0.72423400  12.010000   ; qtot -0.101019
   81         h1      3    bbb    H15     81 0.25637600   1.008000   ; qtot 0.155357
   82         h1      3    bbb    H16     82 0.25637600   1.008000   ; qtot 0.411733
   83         c3      3    bbb     C9     83 -0.72423400  12.010000   ; qtot -0.312501
   84         h1      3    bbb    H17     84 0.25637600   1.008000   ; qtot -0.056125
   85         h1      3    bbb    H18     85 0.25637600   1.008000   ; qtot 0.200251
   86         os      3    bbb     O1     86 -0.20025300  16.000000   ; qtot -0.000002
; residue    4 bbb rtp bbb q -0.0
   87         n3      4    bbb     N1     87 -0.59685800  14.010000   ; qtot -0.596860
   88         c3      4    bbb     C1     88 0.10137000  12.010000   ; qtot -0.495490
   89         h1      4    bbb     H1     89 0.04411300   1.008000   ; qtot -0.451377
   90         h1      4    bbb     H2     90 0.04411300   1.008000   ; qtot -0.407264
   91         c3      4    bbb     C2     91 0.10137000  12.010000   ; qtot -0.305894
   92         h1      4    bbb     H3     92 0.04411300   1.008000   ; qtot -0.261781
   93         h1      4    bbb     H4     93 0.04411300   1.008000   ; qtot -0.217668
   94         c3      4    bbb     C3     94 -0.00195300  12.010000   ; qtot -0.219621
   95         h1      4    bbb     H5     95 0.05064400   1.008000   ; qtot -0.168977
   96         h1      4    bbb     H6     96 0.05064400   1.008000   ; qtot -0.118333
   97         c3      4    bbb     C4     97 -0.01612100  12.010000   ; qtot -0.134454
   98         hc      4    bbb     H7     98 0.04936100   1.008000   ; qtot -0.085093
   99         hc      4    bbb     H8     99 0.04936100   1.008000   ; qtot -0.035732
  100         c3      4    bbb     C5    100 0.11363000  12.010000   ; qtot 0.077898
  101         hc      4    bbb     H9    101 0.06265900   1.008000   ; qtot 0.140557
  102         hc      4    bbb    H10    102 0.06265900   1.008000   ; qtot 0.203216
  103         c3      4    bbb     C6    103 0.11363000  12.010000   ; qtot 0.316846
  104         hc      4    bbb    H11    104 0.06265900   1.008000   ; qtot 0.379505
  105         hc      4    bbb    H12    105 0.06265900   1.008000   ; qtot 0.442164
  106         c3      4    bbb     C7    106 0.05858200  12.010000   ; qtot 0.500746
  107         h1      4    bbb    H13    107 0.06123400   1.008000   ; qtot 0.561980
  108         h1      4    bbb    H14    108 0.06123400   1.008000   ; qtot 0.623214
  109         c3      4    bbb     C8    109 -0.72423400  12.010000   ; qtot -0.101020
  110         h1      4    bbb    H15    110 0.25637600   1.008000   ; qtot 0.155356
  111         h1      4    bbb    H16    111 0.25637600   1.008000   ; qtot 0.411732
  112         c3      4    bbb     C9    112 -0.72423400  12.010000   ; qtot -0.312502
  113         h1      4    bbb    H17    113 0.25637600   1.008000   ; qtot -0.056126
  114         h1      4    bbb    H18    114 0.25637600   1.008000   ; qtot 0.200250
  115         os      4    bbb     O1    115 -0.20025300  16.000000   ; qtot -0.000003
; residue    5 bbb rtp bbb q -0.0
  116         n3      5    bbb     N1    116 -0.59685800  14.010000   ; qtot -0.596861
  117         c3      5    bbb     C1    117 0.10137000  12.010000   ; qtot -0.495491
  118         h1      5    bbb     H1    118 0.04411300   1.008000   ; qtot -0.451378
  119         h1      5    bbb     H2    119 0.04411300   1.008000   ; qtot -0.407265
  120         c3      5    bbb     C2    120 0.10137000  12.010000   ; qtot -0.305895
  121         h1      5    bbb     H3    121 0.04411300   1.008000   ; qtot -0.261782
  122         h1      5    bbb     H4    122 0.04411300   1.008000   ; qtot -0.217669
  123         c3      5    bbb     C3    123 -0.00195300  12.010000   ; qtot -0.219622
  124         h1      5    bbb     H5    124 0.05064400   1.008000   ; qtot -0.168978
  125         h1      5    bbb     H6    125 0.05064400   1.008000   ; qtot -0.118334
  126         c3      5    bbb     C4    126 -0.01612100  12.010000   ; qtot -0.134455
  127         hc      5    bbb     H7    127 0.04936100   1.008000   ; qtot -0.085094
  128         hc      5    bbb     H8    128 0.04936100   1.008000   ; qtot -0.035733
  129         c3      5    bbb     C5    129 0.11363000  12.010000   ; qtot 0.077897
  130         hc      5    bbb     H9    130 0.06265900   1.008000   ; qtot 0.140556
  131         hc      5    bbb    H10    131 0.06265900   1.008000   ; qtot 0.203215
  132         c3      5    bbb     C6    132 0.11363000  12.010000   ; qtot 0.316845
  133         hc      5    bbb    H11    133 0.06265900   1.008000   ; qtot 0.379504
  134         hc      5    bbb    H12    134 0.06265900   1.008000   ; qtot 0.442163
  135         c3      5    bbb     C7    135 0.05858200  12.010000   ; qtot 0.500745
  136         h1      5    bbb    H13    136 0.06123400   1.008000   ; qtot 0.561979
  137         h1      5    bbb    H14    137 0.06123400   1.008000   ; qtot 0.623213
  138         c3      5    bbb     C8    138 -0.72423400  12.010000   ; qtot -0.101021
  139         h1      5    bbb    H15    139 0.25637600   1.008000   ; qtot 0.155355
  140         h1      5    bbb    H16    140 0.25637600   1.008000   ; qtot 0.411731
  141         c3      5    bbb     C9    141 -0.72423400  12.010000   ; qtot -0.312503
  142         h1      5    bbb    H17    142 0.25637600   1.008000   ; qtot -0.056127
  143         h1      5    bbb    H18    143 0.25637600   1.008000   ; qtot 0.200249
  144         os      5    bbb     O1    144 -0.20025300  16.000000   ; qtot -0.000004
; residue    6 bbb rtp bbb q -0.0
  145         n3      6    bbb     N1    145 -0.59685800  14.010000   ; qtot -0.596862
  146         c3      6    bbb     C1    146 0.10137000  12.010000   ; qtot -0.495492
  147         h1      6    bbb     H1    147 0.04411300   1.008000   ; qtot -0.451379
  148         h1      6    bbb     H2    148 0.04411300   1.008000   ; qtot -0.407266
  149         c3      6    bbb     C2    149 0.10137000  12.010000   ; qtot -0.305896
  150         h1      6    bbb     H3    150 0.04411300   1.008000   ; qtot -0.261783
  151         h1      6    bbb     H4    151 0.04411300   1.008000   ; qtot -0.217670
  152         c3      6    bbb     C3    152 -0.00195300  12.010000   ; qtot -0.219623
  153         h1      6    bbb     H5    153 0.05064400   1.008000   ; qtot -0.168979
  154         h1      6    bbb     H6    154 0.05064400   1.008000   ; qtot -0.118335
  155         c3      6    bbb     C4    155 -0.01612100  12.010000   ; qtot -0.134456
  156         hc      6    bbb     H7    156 0.04936100   1.008000   ; qtot -0.085095
  157         hc      6    bbb     H8    157 0.04936100   1.008000   ; qtot -0.035734
  158         c3      6    bbb     C5    158 0.11363000  12.010000   ; qtot 0.077896
  159         hc      6    bbb     H9    159 0.06265900   1.008000   ; qtot 0.140555
  160         hc      6    bbb    H10    160 0.06265900   1.008000   ; qtot 0.203214
  161         c3      6    bbb     C6    161 0.11363000  12.010000   ; qtot 0.316844
  162         hc      6    bbb    H11    162 0.06265900   1.008000   ; qtot 0.379503
  163         hc      6    bbb    H12    163 0.06265900   1.008000   ; qtot 0.442162
  164         c3      6    bbb     C7    164 0.05858200  12.010000   ; qtot 0.500744
  165         h1      6    bbb    H13    165 0.06123400   1.008000   ; qtot 0.561978
  166         h1      6    bbb    H14    166 0.06123400   1.008000   ; qtot 0.623212
  167         c3      6    bbb     C8    167 -0.72423400  12.010000   ; qtot -0.101022
  168         h1      6    bbb    H15    168 0.25637600   1.008000   ; qtot 0.155354
  169         h1      6    bbb    H16    169 0.25637600   1.008000   ; qtot 0.411730
  170         c3      6    bbb     C9    170 -0.72423400  12.010000   ; qtot -0.312504
  171         h1      6    bbb    H17    171 0.25637600   1.008000   ; qtot -0.056128
  172         h1      6    bbb    H18    172 0.25637600   1.008000   ; qtot 0.200248
  173         os      6    bbb     O1    173 -0.20025300  16.000000   ; qtot -0.000005
; residue    7 bbb rtp bbb q -0.0
  174         n3      7    bbb     N1    174 -0.59685800  14.010000   ; qtot -0.596863
  175         c3      7    bbb     C1    175 0.10137000  12.010000   ; qtot -0.495493
  176         h1      7    bbb     H1    176 0.04411300   1.008000   ; qtot -0.451380
  177         h1      7    bbb     H2    177 0.04411300   1.008000   ; qtot -0.407267
  178         c3      7    bbb     C2    178 0.10137000  12.010000   ; qtot -0.305897
  179         h1      7    bbb     H3    179 0.04411300   1.008000   ; qtot -0.261784
  180         h1      7    bbb     H4    180 0.04411300   1.008000   ; qtot -0.217671
  181         c3      7    bbb     C3    181 -0.00195300  12.010000   ; qtot -0.219624
  182         h1      7    bbb     H5    182 0.05064400   1.008000   ; qtot -0.168980
  183         h1      7    bbb     H6    183 0.05064400   1.008000   ; qtot -0.118336
  184         c3      7    bbb     C4    184 -0.01612100  12.010000   ; qtot -0.134457
  185         hc      7    bbb     H7    185 0.04936100   1.008000   ; qtot -0.085096
  186         hc      7    bbb     H8    186 0.04936100   1.008000   ; qtot -0.035735
  187         c3      7    bbb     C5    187 0.11363000  12.010000   ; qtot 0.077895
  188         hc      7    bbb     H9    188 0.06265900   1.008000   ; qtot 0.140554
  189         hc      7    bbb    H10    189 0.06265900   1.008000   ; qtot 0.203213
  190         c3      7    bbb     C6    190 0.11363000  12.010000   ; qtot 0.316843
  191         hc      7    bbb    H11    191 0.06265900   1.008000   ; qtot 0.379502
  192         hc      7    bbb    H12    192 0.06265900   1.008000   ; qtot 0.442161
  193         c3      7    bbb     C7    193 0.05858200  12.010000   ; qtot 0.500743
  194         h1      7    bbb    H13    194 0.06123400   1.008000   ; qtot 0.561977
  195         h1      7    bbb    H14    195 0.06123400   1.008000   ; qtot 0.623211
  196         c3      7    bbb     C8    196 -0.72423400  12.010000   ; qtot -0.101023
  197         h1      7    bbb    H15    197 0.25637600   1.008000   ; qtot 0.155353
  198         h1      7    bbb    H16    198 0.25637600   1.008000   ; qtot 0.411729
  199         c3      7    bbb     C9    199 -0.72423400  12.010000   ; qtot -0.312505
  200         h1      7    bbb    H17    200 0.25637600   1.008000   ; qtot -0.056129
  201         h1      7    bbb    H18    201 0.25637600   1.008000   ; qtot 0.200247
  202         os      7    bbb     O1    202 -0.20025300  16.000000   ; qtot -0.000006
; residue    8 bbb rtp bbb q -0.0
  203         n3      8    bbb     N1    203 -0.59685800  14.010000   ; qtot -0.596864
  204         c3      8    bbb     C1    204 0.10137000  12.010000   ; qtot -0.495494
  205         h1      8    bbb     H1    205 0.04411300   1.008000   ; qtot -0.451381
  206         h1      8    bbb     H2    206 0.04411300   1.008000   ; qtot -0.407268
  207         c3      8    bbb     C2    207 0.10137000  12.010000   ; qtot -0.305898
  208         h1      8    bbb     H3    208 0.04411300   1.008000   ; qtot -0.261785
  209         h1      8    bbb     H4    209 0.04411300   1.008000   ; qtot -0.217672
  210         c3      8    bbb     C3    210 -0.00195300  12.010000   ; qtot -0.219625
  211         h1      8    bbb     H5    211 0.05064400   1.008000   ; qtot -0.168981
  212         h1      8    bbb     H6    212 0.05064400   1.008000   ; qtot -0.118337
  213         c3      8    bbb     C4    213 -0.01612100  12.010000   ; qtot -0.134458
  214         hc      8    bbb     H7    214 0.04936100   1.008000   ; qtot -0.085097
  215         hc      8    bbb     H8    215 0.04936100   1.008000   ; qtot -0.035736
  216         c3      8    bbb     C5    216 0.11363000  12.010000   ; qtot 0.077894
  217         hc      8    bbb     H9    217 0.06265900   1.008000   ; qtot 0.140553
  218         hc      8    bbb    H10    218 0.06265900   1.008000   ; qtot 0.203212
  219         c3      8    bbb     C6    219 0.11363000  12.010000   ; qtot 0.316842
  220         hc      8    bbb    H11    220 0.06265900   1.008000   ; qtot 0.379501
  221         hc      8    bbb    H12    221 0.06265900   1.008000   ; qtot 0.442160
  222         c3      8    bbb     C7    222 0.05858200  12.010000   ; qtot 0.500742
  223         h1      8    bbb    H13    223 0.06123400   1.008000   ; qtot 0.561976
  224         h1      8    bbb    H14    224 0.06123400   1.008000   ; qtot 0.623210
  225         c3      8    bbb     C8    225 -0.72423400  12.010000   ; qtot -0.101024
  226         h1      8    bbb    H15    226 0.25637600   1.008000   ; qtot 0.155352
  227         h1      8    bbb    H16    227 0.25637600   1.008000   ; qtot 0.411728
  228         c3      8    bbb     C9    228 -0.72423400  12.010000   ; qtot -0.312506
  229         h1      8    bbb    H17    229 0.25637600   1.008000   ; qtot -0.056130
  230         h1      8    bbb    H18    230 0.25637600   1.008000   ; qtot 0.200246
  231         os      8    bbb     O1    231 -0.20025300  16.000000   ; qtot -0.000007
; residue    9 bbb rtp bbb q -0.0
  232         n3      9    bbb     N1    232 -0.59685800  14.010000   ; qtot -0.596865
  233         c3      9    bbb     C1    233 0.10137000  12.010000   ; qtot -0.495495
  234         h1      9    bbb     H1    234 0.04411300   1.008000   ; qtot -0.451382
  235         h1      9    bbb     H2    235 0.04411300   1.008000   ; qtot -0.407269
  236         c3      9    bbb     C2    236 0.10137000  12.010000   ; qtot -0.305899
  237         h1      9    bbb     H3    237 0.04411300   1.008000   ; qtot -0.261786
  238         h1      9    bbb     H4    238 0.04411300   1.008000   ; qtot -0.217673
  239         c3      9    bbb     C3    239 -0.00195300  12.010000   ; qtot -0.219626
  240         h1      9    bbb     H5    240 0.05064400   1.008000   ; qtot -0.168982
  241         h1      9    bbb     H6    241 0.05064400   1.008000   ; qtot -0.118338
  242         c3      9    bbb     C4    242 -0.01612100  12.010000   ; qtot -0.134459
  243         hc      9    bbb     H7    243 0.04936100   1.008000   ; qtot -0.085098
  244         hc      9    bbb     H8    244 0.04936100   1.008000   ; qtot -0.035737
  245         c3      9    bbb     C5    245 0.11363000  12.010000   ; qtot 0.077893
  246         hc      9    bbb     H9    246 0.06265900   1.008000   ; qtot 0.140552
  247         hc      9    bbb    H10    247 0.06265900   1.008000   ; qtot 0.203211
  248         c3      9    bbb     C6    248 0.11363000  12.010000   ; qtot 0.316841
  249         hc      9    bbb    H11    249 0.06265900   1.008000   ; qtot 0.379500
  250         hc      9    bbb    H12    250 0.06265900   1.008000   ; qtot 0.442159
  251         c3      9    bbb     C7    251 0.05858200  12.010000   ; qtot 0.500741
  252         h1      9    bbb    H13    252 0.06123400   1.008000   ; qtot 0.561975
  253         h1      9    bbb    H14    253 0.06123400   1.008000   ; qtot 0.623209
  254         c3      9    bbb     C8    254 -0.72423400  12.010000   ; qtot -0.101025
  255         h1      9    bbb    H15    255 0.25637600   1.008000   ; qtot 0.155351
  256         h1      9    bbb    H16    256 0.25637600   1.008000   ; qtot 0.411727
  257         c3      9    bbb     C9    257 -0.72423400  12.010000   ; qtot -0.312507
  258         h1      9    bbb    H17    258 0.25637600   1.008000   ; qtot -0.056131
  259         h1      9    bbb    H18    259 0.25637600   1.008000   ; qtot 0.200245
  260         os      9    bbb     O1    260 -0.20025300  16.000000   ; qtot -0.000008
; residue   10 bbb rtp bbb q -0.0
  261         n3     10    bbb     N1    261 -0.59685800  14.010000   ; qtot -0.596866
  262         c3     10    bbb     C1    262 0.10137000  12.010000   ; qtot -0.495496
  263         h1     10    bbb     H1    263 0.04411300   1.008000   ; qtot -0.451383
  264         h1     10    bbb     H2    264 0.04411300   1.008000   ; qtot -0.407270
  265         c3     10    bbb     C2    265 0.10137000  12.010000   ; qtot -0.305900
  266         h1     10    bbb     H3    266 0.04411300   1.008000   ; qtot -0.261787
  267         h1     10    bbb     H4    267 0.04411300   1.008000   ; qtot -0.217674
  268         c3     10    bbb     C3    268 -0.00195300  12.010000   ; qtot -0.219627
  269         h1     10    bbb     H5    269 0.05064400   1.008000   ; qtot -0.168983
  270         h1     10    bbb     H6    270 0.05064400   1.008000   ; qtot -0.118339
  271         c3     10    bbb     C4    271 -0.01612100  12.010000   ; qtot -0.134460
  272         hc     10    bbb     H7    272 0.04936100   1.008000   ; qtot -0.085099
  273         hc     10    bbb     H8    273 0.04936100   1.008000   ; qtot -0.035738
  274         c3     10    bbb     C5    274 0.11363000  12.010000   ; qtot 0.077892
  275         hc     10    bbb     H9    275 0.06265900   1.008000   ; qtot 0.140551
  276         hc     10    bbb    H10    276 0.06265900   1.008000   ; qtot 0.203210
  277         c3     10    bbb     C6    277 0.11363000  12.010000   ; qtot 0.316840
  278         hc     10    bbb    H11    278 0.06265900   1.008000   ; qtot 0.379499
  279         hc     10    bbb    H12    279 0.06265900   1.008000   ; qtot 0.442158
  280         c3     10    bbb     C7    280 0.05858200  12.010000   ; qtot 0.500740
  281         h1     10    bbb    H13    281 0.06123400   1.008000   ; qtot 0.561974
  282         h1     10    bbb    H14    282 0.06123400   1.008000   ; qtot 0.623208
  283         c3     10    bbb     C8    283 -0.72423400  12.010000   ; qtot -0.101026
  284         h1     10    bbb    H15    284 0.25637600   1.008000   ; qtot 0.155350
  285         h1     10    bbb    H16    285 0.25637600   1.008000   ; qtot 0.411726
  286         c3     10    bbb     C9    286 -0.72423400  12.010000   ; qtot -0.312508
  287         h1     10    bbb    H17    287 0.25637600   1.008000   ; qtot -0.056132
  288         h1     10    bbb    H18    288 0.25637600   1.008000   ; qtot 0.200244
  289         os     10    bbb     O1    289 -0.20025300  16.000000   ; qtot -0.000009
; residue   11 bbb rtp bbb q -0.0
  290         n3     11    bbb     N1    290 -0.59685800  14.010000   ; qtot -0.596867
  291         c3     11    bbb     C1    291 0.10137000  12.010000   ; qtot -0.495497
  292         h1     11    bbb     H1    292 0.04411300   1.008000   ; qtot -0.451384
  293         h1     11    bbb     H2    293 0.04411300   1.008000   ; qtot -0.407271
  294         c3     11    bbb     C2    294 0.10137000  12.010000   ; qtot -0.305901
  295         h1     11    bbb     H3    295 0.04411300   1.008000   ; qtot -0.261788
  296         h1     11    bbb     H4    296 0.04411300   1.008000   ; qtot -0.217675
  297         c3     11    bbb     C3    297 -0.00195300  12.010000   ; qtot -0.219628
  298         h1     11    bbb     H5    298 0.05064400   1.008000   ; qtot -0.168984
  299         h1     11    bbb     H6    299 0.05064400   1.008000   ; qtot -0.118340
  300         c3     11    bbb     C4    300 -0.01612100  12.010000   ; qtot -0.134461
  301         hc     11    bbb     H7    301 0.04936100   1.008000   ; qtot -0.085100
  302         hc     11    bbb     H8    302 0.04936100   1.008000   ; qtot -0.035739
  303         c3     11    bbb     C5    303 0.11363000  12.010000   ; qtot 0.077891
  304         hc     11    bbb     H9    304 0.06265900   1.008000   ; qtot 0.140550
  305         hc     11    bbb    H10    305 0.06265900   1.008000   ; qtot 0.203209
  306         c3     11    bbb     C6    306 0.11363000  12.010000   ; qtot 0.316839
  307         hc     11    bbb    H11    307 0.06265900   1.008000   ; qtot 0.379498
  308         hc     11    bbb    H12    308 0.06265900   1.008000   ; qtot 0.442157
  309         c3     11    bbb     C7    309 0.05858200  12.010000   ; qtot 0.500739
  310         h1     11    bbb    H13    310 0.06123400   1.008000   ; qtot 0.561973
  311         h1     11    bbb    H14    311 0.06123400   1.008000   ; qtot 0.623207
  312         c3     11    bbb     C8    312 -0.72423400  12.010000   ; qtot -0.101027
  313         h1     11    bbb    H15    313 0.25637600   1.008000   ; qtot 0.155349
  314         h1     11    bbb    H16    314 0.25637600   1.008000   ; qtot 0.411725
  315         c3     11    bbb     C9    315 -0.72423400  12.010000   ; qtot -0.312509
  316         h1     11    bbb    H17    316 0.25637600   1.008000   ; qtot -0.056133
  317         h1     11    bbb    H18    317 0.25637600   1.008000   ; qtot 0.200243
  318         os     11    bbb     O1    318 -0.20025300  16.000000   ; qtot -0.000010
; residue   12 bbb rtp bbb q -0.0
  319         n3     12    bbb     N1    319 -0.59685800  14.010000   ; qtot -0.596868
  320         c3     12    bbb     C1    320 0.10137000  12.010000   ; qtot -0.495498
  321         h1     12    bbb     H1    321 0.04411300   1.008000   ; qtot -0.451385
  322         h1     12    bbb     H2    322 0.04411300   1.008000   ; qtot -0.407272
  323         c3     12    bbb     C2    323 0.10137000  12.010000   ; qtot -0.305902
  324         h1     12    bbb     H3    324 0.04411300   1.008000   ; qtot -0.261789
  325         h1     12    bbb     H4    325 0.04411300   1.008000   ; qtot -0.217676
  326         c3     12    bbb     C3    326 -0.00195300  12.010000   ; qtot -0.219629
  327         h1     12    bbb     H5    327 0.05064400   1.008000   ; qtot -0.168985
  328         h1     12    bbb     H6    328 0.05064400   1.008000   ; qtot -0.118341
  329         c3     12    bbb     C4    329 -0.01612100  12.010000   ; qtot -0.134462
  330         hc     12    bbb     H7    330 0.04936100   1.008000   ; qtot -0.085101
  331         hc     12    bbb     H8    331 0.04936100   1.008000   ; qtot -0.035740
  332         c3     12    bbb     C5    332 0.11363000  12.010000   ; qtot 0.077890
  333         hc     12    bbb     H9    333 0.06265900   1.008000   ; qtot 0.140549
  334         hc     12    bbb    H10    334 0.06265900   1.008000   ; qtot 0.203208
  335         c3     12    bbb     C6    335 0.11363000  12.010000   ; qtot 0.316838
  336         hc     12    bbb    H11    336 0.06265900   1.008000   ; qtot 0.379497
  337         hc     12    bbb    H12    337 0.06265900   1.008000   ; qtot 0.442156
  338         c3     12    bbb     C7    338 0.05858200  12.010000   ; qtot 0.500738
  339         h1     12    bbb    H13    339 0.06123400   1.008000   ; qtot 0.561972
  340         h1     12    bbb    H14    340 0.06123400   1.008000   ; qtot 0.623206
  341         c3     12    bbb     C8    341 -0.72423400  12.010000   ; qtot -0.101028
  342         h1     12    bbb    H15    342 0.25637600   1.008000   ; qtot 0.155348
  343         h1     12    bbb    H16    343 0.25637600   1.008000   ; qtot 0.411724
  344         c3     12    bbb     C9    344 -0.72423400  12.010000   ; qtot -0.312510
  345         h1     12    bbb    H17    345 0.25637600   1.008000   ; qtot -0.056134
  346         h1     12    bbb    H18    346 0.25637600   1.008000   ; qtot 0.200242
  347         os     12    bbb     O1    347 -0.20025300  16.000000   ; qtot -0.000011
; residue   13 bbb rtp bbb q -0.0
  348         n3     13    bbb     N1    348 -0.59685800  14.010000   ; qtot -0.596869
  349         c3     13    bbb     C1    349 0.10137000  12.010000   ; qtot -0.495499
  350         h1     13    bbb     H1    350 0.04411300   1.008000   ; qtot -0.451386
  351         h1     13    bbb     H2    351 0.04411300   1.008000   ; qtot -0.407273
  352         c3     13    bbb     C2    352 0.10137000  12.010000   ; qtot -0.305903
  353         h1     13    bbb     H3    353 0.04411300   1.008000   ; qtot -0.261790
  354         h1     13    bbb     H4    354 0.04411300   1.008000   ; qtot -0.217677
  355         c3     13    bbb     C3    355 -0.00195300  12.010000   ; qtot -0.219630
  356         h1     13    bbb     H5    356 0.05064400   1.008000   ; qtot -0.168986
  357         h1     13    bbb     H6    357 0.05064400   1.008000   ; qtot -0.118342
  358         c3     13    bbb     C4    358 -0.01612100  12.010000   ; qtot -0.134463
  359         hc     13    bbb     H7    359 0.04936100   1.008000   ; qtot -0.085102
  360         hc     13    bbb     H8    360 0.04936100   1.008000   ; qtot -0.035741
  361         c3     13    bbb     C5    361 0.11363000  12.010000   ; qtot 0.077889
  362         hc     13    bbb     H9    362 0.06265900   1.008000   ; qtot 0.140548
  363         hc     13    bbb    H10    363 0.06265900   1.008000   ; qtot 0.203207
  364         c3     13    bbb     C6    364 0.11363000  12.010000   ; qtot 0.316837
  365         hc     13    bbb    H11    365 0.06265900   1.008000   ; qtot 0.379496
  366         hc     13    bbb    H12    366 0.06265900   1.008000   ; qtot 0.442155
  367         c3     13    bbb     C7    367 0.05858200  12.010000   ; qtot 0.500737
  368         h1     13    bbb    H13    368 0.06123400   1.008000   ; qtot 0.561971
  369         h1     13    bbb    H14    369 0.06123400   1.008000   ; qtot 0.623205
  370         c3     13    bbb     C8    370 -0.72423400  12.010000   ; qtot -0.101029
  371         h1     13    bbb    H15    371 0.25637600   1.008000   ; qtot 0.155347
  372         h1     13    bbb    H16    372 0.25637600   1.008000   ; qtot 0.411723
  373         c3     13    bbb     C9    373 -0.72423400  12.010000   ; qtot -0.312511
  374         h1     13    bbb    H17    374 0.25637600   1.008000   ; qtot -0.056135
  375         h1     13    bbb    H18    375 0.25637600   1.008000   ; qtot 0.200241
  376         os     13    bbb     O1    376 -0.20025300  16.000000   ; qtot -0.000012
; residue   14 bbb rtp bbb q -0.0
  377         n3     14    bbb     N1    377 -0.59685800  14.010000   ; qtot -0.596870
  378         c3     14    bbb     C1    378 0.10137000  12.010000   ; qtot -0.495500
  379         h1     14    bbb     H1    379 0.04411300   1.008000   ; qtot -0.451387
  380         h1     14    bbb     H2    380 0.04411300   1.008000   ; qtot -0.407274
  381         c3     14    bbb     C2    381 0.10137000  12.010000   ; qtot -0.305904
  382         h1     14    bbb     H3    382 0.04411300   1.008000   ; qtot -0.261791
  383         h1     14    bbb     H4    383 0.04411300   1.008000   ; qtot -0.217678
  384         c3     14    bbb     C3    384 -0.00195300  12.010000   ; qtot -0.219631
  385         h1     14    bbb     H5    385 0.05064400   1.008000   ; qtot -0.168987
  386         h1     14    bbb     H6    386 0.05064400   1.008000   ; qtot -0.118343
  387         c3     14    bbb     C4    387 -0.01612100  12.010000   ; qtot -0.134464
  388         hc     14    bbb     H7    388 0.04936100   1.008000   ; qtot -0.085103
  389         hc     14    bbb     H8    389 0.04936100   1.008000   ; qtot -0.035742
  390         c3     14    bbb     C5    390 0.11363000  12.010000   ; qtot 0.077888
  391         hc     14    bbb     H9    391 0.06265900   1.008000   ; qtot 0.140547
  392         hc     14    bbb    H10    392 0.06265900   1.008000   ; qtot 0.203206
  393         c3     14    bbb     C6    393 0.11363000  12.010000   ; qtot 0.316836
  394         hc     14    bbb    H11    394 0.06265900   1.008000   ; qtot 0.379495
  395         hc     14    bbb    H12    395 0.06265900   1.008000   ; qtot 0.442154
  396         c3     14    bbb     C7    396 0.05858200  12.010000   ; qtot 0.500736
  397         h1     14    bbb    H13    397 0.06123400   1.008000   ; qtot 0.561970
  398         h1     14    bbb    H14    398 0.06123400   1.008000   ; qtot 0.623204
  399         c3     14    bbb     C8    399 -0.72423400  12.010000   ; qtot -0.101030
  400         h1     14    bbb    H15    400 0.25637600   1.008000   ; qtot 0.155346
  401         h1     14    bbb    H16    401 0.25637600   1.008000   ; qtot 0.411722
  402         c3     14    bbb     C9    402 -0.72423400  12.010000   ; qtot -0.312512
  403         h1     14    bbb    H17    403 0.25637600   1.008000   ; qtot -0.056136
  404         h1     14    bbb    H18    404 0.25637600   1.008000   ; qtot 0.200240
  405         os     14    bbb     O1    405 -0.20025300  16.000000   ; qtot -0.000013
; residue   15 bbb rtp bbb q -0.0
  406         n3     15    bbb     N1    406 -0.59685800  14.010000   ; qtot -0.596871
  407         c3     15    bbb     C1    407 0.10137000  12.010000   ; qtot -0.495501
  408         h1     15    bbb     H1    408 0.04411300   1.008000   ; qtot -0.451388
  409         h1     15    bbb     H2    409 0.04411300   1.008000   ; qtot -0.407275
  410         c3     15    bbb     C2    410 0.10137000  12.010000   ; qtot -0.305905
  411         h1     15    bbb     H3    411 0.04411300   1.008000   ; qtot -0.261792
  412         h1     15    bbb     H4    412 0.04411300   1.008000   ; qtot -0.217679
  413         c3     15    bbb     C3    413 -0.00195300  12.010000   ; qtot -0.219632
  414         h1     15    bbb     H5    414 0.05064400   1.008000   ; qtot -0.168988
  415         h1     15    bbb     H6    415 0.05064400   1.008000   ; qtot -0.118344
  416         c3     15    bbb     C4    416 -0.01612100  12.010000   ; qtot -0.134465
  417         hc     15    bbb     H7    417 0.04936100   1.008000   ; qtot -0.085104
  418         hc     15    bbb     H8    418 0.04936100   1.008000   ; qtot -0.035743
  419         c3     15    bbb     C5    419 0.11363000  12.010000   ; qtot 0.077887
  420         hc     15    bbb     H9    420 0.06265900   1.008000   ; qtot 0.140546
  421         hc     15    bbb    H10    421 0.06265900   1.008000   ; qtot 0.203205
  422         c3     15    bbb     C6    422 0.11363000  12.010000   ; qtot 0.316835
  423         hc     15    bbb    H11    423 0.06265900   1.008000   ; qtot 0.379494
  424         hc     15    bbb    H12    424 0.06265900   1.008000   ; qtot 0.442153
  425         c3     15    bbb     C7    425 0.05858200  12.010000   ; qtot 0.500735
  426         h1     15    bbb    H13    426 0.06123400   1.008000   ; qtot 0.561969
  427         h1     15    bbb    H14    427 0.06123400   1.008000   ; qtot 0.623203
  428         c3     15    bbb     C8    428 -0.72423400  12.010000   ; qtot -0.101031
  429         h1     15    bbb    H15    429 0.25637600   1.008000   ; qtot 0.155345
  430         h1     15    bbb    H16    430 0.25637600   1.008000   ; qtot 0.411721
  431         c3     15    bbb     C9    431 -0.72423400  12.010000   ; qtot -0.312513
  432         h1     15    bbb    H17    432 0.25637600   1.008000   ; qtot -0.056137
  433         h1     15    bbb    H18    433 0.25637600   1.008000   ; qtot 0.200239
  434         os     15    bbb     O1    434 -0.20025300  16.000000   ; qtot -0.000014
; residue   16 bbb rtp bbb q -0.0
  435         n3     16    bbb     N1    435 -0.59685800  14.010000   ; qtot -0.596872
  436         c3     16    bbb     C1    436 0.10137000  12.010000   ; qtot -0.495502
  437         h1     16    bbb     H1    437 0.04411300   1.008000   ; qtot -0.451389
  438         h1     16    bbb     H2    438 0.04411300   1.008000   ; qtot -0.407276
  439         c3     16    bbb     C2    439 0.10137000  12.010000   ; qtot -0.305906
  440         h1     16    bbb     H3    440 0.04411300   1.008000   ; qtot -0.261793
  441         h1     16    bbb     H4    441 0.04411300   1.008000   ; qtot -0.217680
  442         c3     16    bbb     C3    442 -0.00195300  12.010000   ; qtot -0.219633
  443         h1     16    bbb     H5    443 0.05064400   1.008000   ; qtot -0.168989
  444         h1     16    bbb     H6    444 0.05064400   1.008000   ; qtot -0.118345
  445         c3     16    bbb     C4    445 -0.01612100  12.010000   ; qtot -0.134466
  446         hc     16    bbb     H7    446 0.04936100   1.008000   ; qtot -0.085105
  447         hc     16    bbb     H8    447 0.04936100   1.008000   ; qtot -0.035744
  448         c3     16    bbb     C5    448 0.11363000  12.010000   ; qtot 0.077886
  449         hc     16    bbb     H9    449 0.06265900   1.008000   ; qtot 0.140545
  450         hc     16    bbb    H10    450 0.06265900   1.008000   ; qtot 0.203204
  451         c3     16    bbb     C6    451 0.11363000  12.010000   ; qtot 0.316834
  452         hc     16    bbb    H11    452 0.06265900   1.008000   ; qtot 0.379493
  453         hc     16    bbb    H12    453 0.06265900   1.008000   ; qtot 0.442152
  454         c3     16    bbb     C7    454 0.05858200  12.010000   ; qtot 0.500734
  455         h1     16    bbb    H13    455 0.06123400   1.008000   ; qtot 0.561968
  456         h1     16    bbb    H14    456 0.06123400   1.008000   ; qtot 0.623202
  457         c3     16    bbb     C8    457 -0.72423400  12.010000   ; qtot -0.101032
  458         h1     16    bbb    H15    458 0.25637600   1.008000   ; qtot 0.155344
  459         h1     16    bbb    H16    459 0.25637600   1.008000   ; qtot 0.411720
  460         c3     16    bbb     C9    460 -0.72423400  12.010000   ; qtot -0.312514
  461         h1     16    bbb    H17    461 0.25637600   1.008000   ; qtot -0.056138
  462         h1     16    bbb    H18    462 0.25637600   1.008000   ; qtot 0.200238
  463         os     16    bbb     O1    463 -0.20025300  16.000000   ; qtot -0.000015
; residue   17 bbb rtp bbb q -0.0
  464         n3     17    bbb     N1    464 -0.59685800  14.010000   ; qtot -0.596873
  465         c3     17    bbb     C1    465 0.10137000  12.010000   ; qtot -0.495503
  466         h1     17    bbb     H1    466 0.04411300   1.008000   ; qtot -0.451390
  467         h1     17    bbb     H2    467 0.04411300   1.008000   ; qtot -0.407277
  468         c3     17    bbb     C2    468 0.10137000  12.010000   ; qtot -0.305907
  469         h1     17    bbb     H3    469 0.04411300   1.008000   ; qtot -0.261794
  470         h1     17    bbb     H4    470 0.04411300   1.008000   ; qtot -0.217681
  471         c3     17    bbb     C3    471 -0.00195300  12.010000   ; qtot -0.219634
  472         h1     17    bbb     H5    472 0.05064400   1.008000   ; qtot -0.168990
  473         h1     17    bbb     H6    473 0.05064400   1.008000   ; qtot -0.118346
  474         c3     17    bbb     C4    474 -0.01612100  12.010000   ; qtot -0.134467
  475         hc     17    bbb     H7    475 0.04936100   1.008000   ; qtot -0.085106
  476         hc     17    bbb     H8    476 0.04936100   1.008000   ; qtot -0.035745
  477         c3     17    bbb     C5    477 0.11363000  12.010000   ; qtot 0.077885
  478         hc     17    bbb     H9    478 0.06265900   1.008000   ; qtot 0.140544
  479         hc     17    bbb    H10    479 0.06265900   1.008000   ; qtot 0.203203
  480         c3     17    bbb     C6    480 0.11363000  12.010000   ; qtot 0.316833
  481         hc     17    bbb    H11    481 0.06265900   1.008000   ; qtot 0.379492
  482         hc     17    bbb    H12    482 0.06265900   1.008000   ; qtot 0.442151
  483         c3     17    bbb     C7    483 0.05858200  12.010000   ; qtot 0.500733
  484         h1     17    bbb    H13    484 0.06123400   1.008000   ; qtot 0.561967
  485         h1     17    bbb    H14    485 0.06123400   1.008000   ; qtot 0.623201
  486         c3     17    bbb     C8    486 -0.72423400  12.010000   ; qtot -0.101033
  487         h1     17    bbb    H15    487 0.25637600   1.008000   ; qtot 0.155343
  488         h1     17    bbb    H16    488 0.25637600   1.008000   ; qtot 0.411719
  489         c3     17    bbb     C9    489 -0.72423400  12.010000   ; qtot -0.312515
  490         h1     17    bbb    H17    490 0.25637600   1.008000   ; qtot -0.056139
  491         h1     17    bbb    H18    491 0.25637600   1.008000   ; qtot 0.200237
  492         os     17    bbb     O1    492 -0.20025300  16.000000   ; qtot -0.000016
; residue   18 bbb rtp bbb q -0.0
  493         n3     18    bbb     N1    493 -0.59685800  14.010000   ; qtot -0.596874
  494         c3     18    bbb     C1    494 0.10137000  12.010000   ; qtot -0.495504
  495         h1     18    bbb     H1    495 0.04411300   1.008000   ; qtot -0.451391
  496         h1     18    bbb     H2    496 0.04411300   1.008000   ; qtot -0.407278
  497         c3     18    bbb     C2    497 0.10137000  12.010000   ; qtot -0.305908
  498         h1     18    bbb     H3    498 0.04411300   1.008000   ; qtot -0.261795
  499         h1     18    bbb     H4    499 0.04411300   1.008000   ; qtot -0.217682
  500         c3     18    bbb     C3    500 -0.00195300  12.010000   ; qtot -0.219635
  501         h1     18    bbb     H5    501 0.05064400   1.008000   ; qtot -0.168991
  502         h1     18    bbb     H6    502 0.05064400   1.008000   ; qtot -0.118347
  503         c3     18    bbb     C4    503 -0.01612100  12.010000   ; qtot -0.134468
  504         hc     18    bbb     H7    504 0.04936100   1.008000   ; qtot -0.085107
  505         hc     18    bbb     H8    505 0.04936100   1.008000   ; qtot -0.035746
  506         c3     18    bbb     C5    506 0.11363000  12.010000   ; qtot 0.077884
  507         hc     18    bbb     H9    507 0.06265900   1.008000   ; qtot 0.140543
  508         hc     18    bbb    H10    508 0.06265900   1.008000   ; qtot 0.203202
  509         c3     18    bbb     C6    509 0.11363000  12.010000   ; qtot 0.316832
  510         hc     18    bbb    H11    510 0.06265900   1.008000   ; qtot 0.379491
  511         hc     18    bbb    H12    511 0.06265900   1.008000   ; qtot 0.442150
  512         c3     18    bbb     C7    512 0.05858200  12.010000   ; qtot 0.500732
  513         h1     18    bbb    H13    513 0.06123400   1.008000   ; qtot 0.561966
  514         h1     18    bbb    H14    514 0.06123400   1.008000   ; qtot 0.623200
  515         c3     18    bbb     C8    515 -0.72423400  12.010000   ; qtot -0.101034
  516         h1     18    bbb    H15    516 0.25637600   1.008000   ; qtot 0.155342
  517         h1     18    bbb    H16    517 0.25637600   1.008000   ; qtot 0.411718
  518         c3     18    bbb     C9    518 -0.72423400  12.010000   ; qtot -0.312516
  519         h1     18    bbb    H17    519 0.25637600   1.008000   ; qtot -0.056140
  520         h1     18    bbb    H18    520 0.25637600   1.008000   ; qtot 0.200236
  521         os     18    bbb     O1    521 -0.20025300  16.000000   ; qtot -0.000017
; residue   19 bbb rtp bbb q -0.0
  522         n3     19    bbb     N1    522 -0.59685800  14.010000   ; qtot -0.596875
  523         c3     19    bbb     C1    523 0.10137000  12.010000   ; qtot -0.495505
  524         h1     19    bbb     H1    524 0.04411300   1.008000   ; qtot -0.451392
  525         h1     19    bbb     H2    525 0.04411300   1.008000   ; qtot -0.407279
  526         c3     19    bbb     C2    526 0.10137000  12.010000   ; qtot -0.305909
  527         h1     19    bbb     H3    527 0.04411300   1.008000   ; qtot -0.261796
  528         h1     19    bbb     H4    528 0.04411300   1.008000   ; qtot -0.217683
  529         c3     19    bbb     C3    529 -0.00195300  12.010000   ; qtot -0.219636
  530         h1     19    bbb     H5    530 0.05064400   1.008000   ; qtot -0.168992
  531         h1     19    bbb     H6    531 0.05064400   1.008000   ; qtot -0.118348
  532         c3     19    bbb     C4    532 -0.01612100  12.010000   ; qtot -0.134469
  533         hc     19    bbb     H7    533 0.04936100   1.008000   ; qtot -0.085108
  534         hc     19    bbb     H8    534 0.04936100   1.008000   ; qtot -0.035747
  535         c3     19    bbb     C5    535 0.11363000  12.010000   ; qtot 0.077883
  536         hc     19    bbb     H9    536 0.06265900   1.008000   ; qtot 0.140542
  537         hc     19    bbb    H10    537 0.06265900   1.008000   ; qtot 0.203201
  538         c3     19    bbb     C6    538 0.11363000  12.010000   ; qtot 0.316831
  539         hc     19    bbb    H11    539 0.06265900   1.008000   ; qtot 0.379490
  540         hc     19    bbb    H12    540 0.06265900   1.008000   ; qtot 0.442149
  541         c3     19    bbb     C7    541 0.05858200  12.010000   ; qtot 0.500731
  542         h1     19    bbb    H13    542 0.06123400   1.008000   ; qtot 0.561965
  543         h1     19    bbb    H14    543 0.06123400   1.008000   ; qtot 0.623199
  544         c3     19    bbb     C8    544 -0.72423400  12.010000   ; qtot -0.101035
  545         h1     19    bbb    H15    545 0.25637600   1.008000   ; qtot 0.155341
  546         h1     19    bbb    H16    546 0.25637600   1.008000   ; qtot 0.411717
  547         c3     19    bbb     C9    547 -0.72423400  12.010000   ; qtot -0.312517
  548         h1     19    bbb    H17    548 0.25637600   1.008000   ; qtot -0.056141
  549         h1     19    bbb    H18    549 0.25637600   1.008000   ; qtot 0.200235
  550         os     19    bbb     O1    550 -0.20025300  16.000000   ; qtot -0.000018
; residue   20 bbb rtp bbb q -0.0
  551         n3     20    bbb     N1    551 -0.59685800  14.010000   ; qtot -0.596876
  552         c3     20    bbb     C1    552 0.10137000  12.010000   ; qtot -0.495506
  553         h1     20    bbb     H1    553 0.04411300   1.008000   ; qtot -0.451393
  554         h1     20    bbb     H2    554 0.04411300   1.008000   ; qtot -0.407280
  555         c3     20    bbb     C2    555 0.10137000  12.010000   ; qtot -0.305910
  556         h1     20    bbb     H3    556 0.04411300   1.008000   ; qtot -0.261797
  557         h1     20    bbb     H4    557 0.04411300   1.008000   ; qtot -0.217684
  558         c3     20    bbb     C3    558 -0.00195300  12.010000   ; qtot -0.219637
  559         h1     20    bbb     H5    559 0.05064400   1.008000   ; qtot -0.168993
  560         h1     20    bbb     H6    560 0.05064400   1.008000   ; qtot -0.118349
  561         c3     20    bbb     C4    561 -0.01612100  12.010000   ; qtot -0.134470
  562         hc     20    bbb     H7    562 0.04936100   1.008000   ; qtot -0.085109
  563         hc     20    bbb     H8    563 0.04936100   1.008000   ; qtot -0.035748
  564         c3     20    bbb     C5    564 0.11363000  12.010000   ; qtot 0.077882
  565         hc     20    bbb     H9    565 0.06265900   1.008000   ; qtot 0.140541
  566         hc     20    bbb    H10    566 0.06265900   1.008000   ; qtot 0.203200
  567         c3     20    bbb     C6    567 0.11363000  12.010000   ; qtot 0.316830
  568         hc     20    bbb    H11    568 0.06265900   1.008000   ; qtot 0.379489
  569         hc     20    bbb    H12    569 0.06265900   1.008000   ; qtot 0.442148
  570         c3     20    bbb     C7    570 0.05858200  12.010000   ; qtot 0.500730
  571         h1     20    bbb    H13    571 0.06123400   1.008000   ; qtot 0.561964
  572         h1     20    bbb    H14    572 0.06123400   1.008000   ; qtot 0.623198
  573         c3     20    bbb     C8    573 -0.72423400  12.010000   ; qtot -0.101036
  574         h1     20    bbb    H15    574 0.25637600   1.008000   ; qtot 0.155340
  575         h1     20    bbb    H16    575 0.25637600   1.008000   ; qtot 0.411716
  576         c3     20    bbb     C9    576 -0.72423400  12.010000   ; qtot -0.312518
  577         h1     20    bbb    H17    577 0.25637600   1.008000   ; qtot -0.056142
  578         h1     20    bbb    H18    578 0.25637600   1.008000   ; qtot 0.200234
  579         os     20    bbb     O1    579 -0.20025300  16.000000   ; qtot -0.000019
; residue   21 bbb rtp bbb q -0.0
  580         n3     21    bbb     N1    580 -0.59685800  14.010000   ; qtot -0.596877
  581         c3     21    bbb     C1    581 0.10137000  12.010000   ; qtot -0.495507
  582         h1     21    bbb     H1    582 0.04411300   1.008000   ; qtot -0.451394
  583         h1     21    bbb     H2    583 0.04411300   1.008000   ; qtot -0.407281
  584         c3     21    bbb     C2    584 0.10137000  12.010000   ; qtot -0.305911
  585         h1     21    bbb     H3    585 0.04411300   1.008000   ; qtot -0.261798
  586         h1     21    bbb     H4    586 0.04411300   1.008000   ; qtot -0.217685
  587         c3     21    bbb     C3    587 -0.00195300  12.010000   ; qtot -0.219638
  588         h1     21    bbb     H5    588 0.05064400   1.008000   ; qtot -0.168994
  589         h1     21    bbb     H6    589 0.05064400   1.008000   ; qtot -0.118350
  590         c3     21    bbb     C4    590 -0.01612100  12.010000   ; qtot -0.134471
  591         hc     21    bbb     H7    591 0.04936100   1.008000   ; qtot -0.085110
  592         hc     21    bbb     H8    592 0.04936100   1.008000   ; qtot -0.035749
  593         c3     21    bbb     C5    593 0.11363000  12.010000   ; qtot 0.077881
  594         hc     21    bbb     H9    594 0.06265900   1.008000   ; qtot 0.140540
  595         hc     21    bbb    H10    595 0.06265900   1.008000   ; qtot 0.203199
  596         c3     21    bbb     C6    596 0.11363000  12.010000   ; qtot 0.316829
  597         hc     21    bbb    H11    597 0.06265900   1.008000   ; qtot 0.379488
  598         hc     21    bbb    H12    598 0.06265900   1.008000   ; qtot 0.442147
  599         c3     21    bbb     C7    599 0.05858200  12.010000   ; qtot 0.500729
  600         h1     21    bbb    H13    600 0.06123400   1.008000   ; qtot 0.561963
  601         h1     21    bbb    H14    601 0.06123400   1.008000   ; qtot 0.623197
  602         c3     21    bbb     C8    602 -0.72423400  12.010000   ; qtot -0.101037
  603         h1     21    bbb    H15    603 0.25637600   1.008000   ; qtot 0.155339
  604         h1     21    bbb    H16    604 0.25637600   1.008000   ; qtot 0.411715
  605         c3     21    bbb     C9    605 -0.72423400  12.010000   ; qtot -0.312519
  606         h1     21    bbb    H17    606 0.25637600   1.008000   ; qtot -0.056143
  607         h1     21    bbb    H18    607 0.25637600   1.008000   ; qtot 0.200233
  608         os     21    bbb     O1    608 -0.20025300  16.000000   ; qtot -0.000020
; residue   22 bbb rtp bbb q -0.0
  609         n3     22    bbb     N1    609 -0.59685800  14.010000   ; qtot -0.596878
  610         c3     22    bbb     C1    610 0.10137000  12.010000   ; qtot -0.495508
  611         h1     22    bbb     H1    611 0.04411300   1.008000   ; qtot -0.451395
  612         h1     22    bbb     H2    612 0.04411300   1.008000   ; qtot -0.407282
  613         c3     22    bbb     C2    613 0.10137000  12.010000   ; qtot -0.305912
  614         h1     22    bbb     H3    614 0.04411300   1.008000   ; qtot -0.261799
  615         h1     22    bbb     H4    615 0.04411300   1.008000   ; qtot -0.217686
  616         c3     22    bbb     C3    616 -0.00195300  12.010000   ; qtot -0.219639
  617         h1     22    bbb     H5    617 0.05064400   1.008000   ; qtot -0.168995
  618         h1     22    bbb     H6    618 0.05064400   1.008000   ; qtot -0.118351
  619         c3     22    bbb     C4    619 -0.01612100  12.010000   ; qtot -0.134472
  620         hc     22    bbb     H7    620 0.04936100   1.008000   ; qtot -0.085111
  621         hc     22    bbb     H8    621 0.04936100   1.008000   ; qtot -0.035750
  622         c3     22    bbb     C5    622 0.11363000  12.010000   ; qtot 0.077880
  623         hc     22    bbb     H9    623 0.06265900   1.008000   ; qtot 0.140539
  624         hc     22    bbb    H10    624 0.06265900   1.008000   ; qtot 0.203198
  625         c3     22    bbb     C6    625 0.11363000  12.010000   ; qtot 0.316828
  626         hc     22    bbb    H11    626 0.06265900   1.008000   ; qtot 0.379487
  627         hc     22    bbb    H12    627 0.06265900   1.008000   ; qtot 0.442146
  628         c3     22    bbb     C7    628 0.05858200  12.010000   ; qtot 0.500728
  629         h1     22    bbb    H13    629 0.06123400   1.008000   ; qtot 0.561962
  630         h1     22    bbb    H14    630 0.06123400   1.008000   ; qtot 0.623196
  631         c3     22    bbb     C8    631 -0.72423400  12.010000   ; qtot -0.101038
  632         h1     22    bbb    H15    632 0.25637600   1.008000   ; qtot 0.155338
  633         h1     22    bbb    H16    633 0.25637600   1.008000   ; qtot 0.411714
  634         c3     22    bbb     C9    634 -0.72423400  12.010000   ; qtot -0.312520
  635         h1     22    bbb    H17    635 0.25637600   1.008000   ; qtot -0.056144
  636         h1     22    bbb    H18    636 0.25637600   1.008000   ; qtot 0.200232
  637         os     22    bbb     O1    637 -0.20025300  16.000000   ; qtot -0.000021
; residue   23 ccc rtp ccc q -2.0
  638         c3     23    ccc     C3    638 -0.04070000  12.010000   ; qtot -0.040721
  639         h1     23    ccc     H5    639 0.04610000   1.008000   ; qtot 0.005379
  640         h1     23    ccc     H6    640 0.04610000   1.008000   ; qtot 0.051479
  641         c3     23    ccc     C2    641 -0.02540000  12.010000   ; qtot 0.026079
  642         hc     23    ccc     H3    642 0.00850000   1.008000   ; qtot 0.034579
  643         hc     23    ccc     H4    643 0.00850000   1.008000   ; qtot 0.043079
  644         c3     23    ccc     C1    644 0.60210000  12.010000   ; qtot 0.645179
  645         h1     23    ccc     H1    645 -0.09250000   1.008000   ; qtot 0.552679
  646         h1     23    ccc     H2    646 -0.09250000   1.008000   ; qtot 0.460179
  647         n3     23    ccc     N1    647 -0.59700000  14.010000   ; qtot -0.136821
  648         c3     23    ccc     C4    648 0.32800000  12.010000   ; qtot 0.191179
  649         h1     23    ccc     H7    649 -0.07120000   1.008000   ; qtot 0.119979
  650         h1     23    ccc     H8    650 -0.07120000   1.008000   ; qtot 0.048779
  651         c3     23    ccc     C5    651 -0.39330000  12.010000   ; qtot -0.344521
  652         hc     23    ccc     H9    652 0.08130000   1.008000   ; qtot -0.263221
  653         hc     23    ccc    H10    653 0.08130000   1.008000   ; qtot -0.181921
  654          c     23    ccc     C6    654 1.08970000  12.010000   ; qtot 0.907779
  655          o     23    ccc     O2    655 -0.96050000  16.000000   ; qtot -0.052721
  656          o     23    ccc     O3    656 -0.96050000  16.000000   ; qtot -1.013221
  657         c3     23    ccc     C7    657 0.32800000  12.010000   ; qtot -0.685221
  658         h1     23    ccc    H11    658 -0.07120000   1.008000   ; qtot -0.756421
  659         h1     23    ccc    H12    659 -0.07120000   1.008000   ; qtot -0.827621
  660         c3     23    ccc     C8    660 -0.39330000  12.010000   ; qtot -1.220921
  661         hc     23    ccc    H13    661 0.08130000   1.008000   ; qtot -1.139621
  662         hc     23    ccc    H14    662 0.08130000   1.008000   ; qtot -1.058321
  663          c     23    ccc     C9    663 1.08970000  12.010000   ; qtot 0.031379
  664          o     23    ccc     O4    664 -0.96050000  16.000000   ; qtot -0.929121
  665          o     23    ccc     O5    665 -0.96050000  16.000000   ; qtot -1.889621
  666         os     23    ccc     O1    666 -0.11060000  16.000000   ; qtot -2.000221
; residue   24 ccc rtp ccc q -2.0
  667         c3     24    ccc     C3    667 -0.04070000  12.010000   ; qtot -2.040921
  668         h1     24    ccc     H5    668 0.04610000   1.008000   ; qtot -1.994821
  669         h1     24    ccc     H6    669 0.04610000   1.008000   ; qtot -1.948721
  670         c3     24    ccc     C2    670 -0.02540000  12.010000   ; qtot -1.974121
  671         hc     24    ccc     H3    671 0.00850000   1.008000   ; qtot -1.965621
  672         hc     24    ccc     H4    672 0.00850000   1.008000   ; qtot -1.957121
  673         c3     24    ccc     C1    673 0.60210000  12.010000   ; qtot -1.355021
  674         h1     24    ccc     H1    674 -0.09250000   1.008000   ; qtot -1.447521
  675         h1     24    ccc     H2    675 -0.09250000   1.008000   ; qtot -1.540021
  676         n3     24    ccc     N1    676 -0.59700000  14.010000   ; qtot -2.137021
  677         c3     24    ccc     C4    677 0.32800000  12.010000   ; qtot -1.809021
  678         h1     24    ccc     H7    678 -0.07120000   1.008000   ; qtot -1.880221
  679         h1     24    ccc     H8    679 -0.07120000   1.008000   ; qtot -1.951421
  680         c3     24    ccc     C5    680 -0.39330000  12.010000   ; qtot -2.344721
  681         hc     24    ccc     H9    681 0.08130000   1.008000   ; qtot -2.263421
  682         hc     24    ccc    H10    682 0.08130000   1.008000   ; qtot -2.182121
  683          c     24    ccc     C6    683 1.08970000  12.010000   ; qtot -1.092421
  684          o     24    ccc     O2    684 -0.96050000  16.000000   ; qtot -2.052921
  685          o     24    ccc     O3    685 -0.96050000  16.000000   ; qtot -3.013421
  686         c3     24    ccc     C7    686 0.32800000  12.010000   ; qtot -2.685421
  687         h1     24    ccc    H11    687 -0.07120000   1.008000   ; qtot -2.756621
  688         h1     24    ccc    H12    688 -0.07120000   1.008000   ; qtot -2.827821
  689         c3     24    ccc     C8    689 -0.39330000  12.010000   ; qtot -3.221121
  690         hc     24    ccc    H13    690 0.08130000   1.008000   ; qtot -3.139821
  691         hc     24    ccc    H14    691 0.08130000   1.008000   ; qtot -3.058521
  692          c     24    ccc     C9    692 1.08970000  12.010000   ; qtot -1.968821
  693          o     24    ccc     O4    693 -0.96050000  16.000000   ; qtot -2.929321
  694          o     24    ccc     O5    694 -0.96050000  16.000000   ; qtot -3.889821
  695         os     24    ccc     O1    695 -0.11060000  16.000000   ; qtot -4.000421
; residue   25 ccc rtp ccc q -2.0
  696         c3     25    ccc     C3    696 -0.04070000  12.010000   ; qtot -4.041121
  697         h1     25    ccc     H5    697 0.04610000   1.008000   ; qtot -3.995021
  698         h1     25    ccc     H6    698 0.04610000   1.008000   ; qtot -3.948921
  699         c3     25    ccc     C2    699 -0.02540000  12.010000   ; qtot -3.974321
  700         hc     25    ccc     H3    700 0.00850000   1.008000   ; qtot -3.965821
  701         hc     25    ccc     H4    701 0.00850000   1.008000   ; qtot -3.957321
  702         c3     25    ccc     C1    702 0.60210000  12.010000   ; qtot -3.355221
  703         h1     25    ccc     H1    703 -0.09250000   1.008000   ; qtot -3.447721
  704         h1     25    ccc     H2    704 -0.09250000   1.008000   ; qtot -3.540221
  705         n3     25    ccc     N1    705 -0.59700000  14.010000   ; qtot -4.137221
  706         c3     25    ccc     C4    706 0.32800000  12.010000   ; qtot -3.809221
  707         h1     25    ccc     H7    707 -0.07120000   1.008000   ; qtot -3.880421
  708         h1     25    ccc     H8    708 -0.07120000   1.008000   ; qtot -3.951621
  709         c3     25    ccc     C5    709 -0.39330000  12.010000   ; qtot -4.344921
  710         hc     25    ccc     H9    710 0.08130000   1.008000   ; qtot -4.263621
  711         hc     25    ccc    H10    711 0.08130000   1.008000   ; qtot -4.182321
  712          c     25    ccc     C6    712 1.08970000  12.010000   ; qtot -3.092621
  713          o     25    ccc     O2    713 -0.96050000  16.000000   ; qtot -4.053121
  714          o     25    ccc     O3    714 -0.96050000  16.000000   ; qtot -5.013621
  715         c3     25    ccc     C7    715 0.32800000  12.010000   ; qtot -4.685621
  716         h1     25    ccc    H11    716 -0.07120000   1.008000   ; qtot -4.756821
  717         h1     25    ccc    H12    717 -0.07120000   1.008000   ; qtot -4.828021
  718         c3     25    ccc     C8    718 -0.39330000  12.010000   ; qtot -5.221321
  719         hc     25    ccc    H13    719 0.08130000   1.008000   ; qtot -5.140021
  720         hc     25    ccc    H14    720 0.08130000   1.008000   ; qtot -5.058721
  721          c     25    ccc     C9    721 1.08970000  12.010000   ; qtot -3.969021
  722          o     25    ccc     O4    722 -0.96050000  16.000000   ; qtot -4.929521
  723          o     25    ccc     O5    723 -0.96050000  16.000000   ; qtot -5.890021
  724         os     25    ccc     O1    724 -0.11060000  16.000000   ; qtot -6.000621
; residue   26 ccc rtp ccc q -2.0
  725         c3     26    ccc     C3    725 -0.04070000  12.010000   ; qtot -6.041321
  726         h1     26    ccc     H5    726 0.04610000   1.008000   ; qtot -5.995221
  727         h1     26    ccc     H6    727 0.04610000   1.008000   ; qtot -5.949121
  728         c3     26    ccc     C2    728 -0.02540000  12.010000   ; qtot -5.974521
  729         hc     26    ccc     H3    729 0.00850000   1.008000   ; qtot -5.966021
  730         hc     26    ccc     H4    730 0.00850000   1.008000   ; qtot -5.957521
  731         c3     26    ccc     C1    731 0.60210000  12.010000   ; qtot -5.355421
  732         h1     26    ccc     H1    732 -0.09250000   1.008000   ; qtot -5.447921
  733         h1     26    ccc     H2    733 -0.09250000   1.008000   ; qtot -5.540421
  734         n3     26    ccc     N1    734 -0.59700000  14.010000   ; qtot -6.137421
  735         c3     26    ccc     C4    735 0.32800000  12.010000   ; qtot -5.809421
  736         h1     26    ccc     H7    736 -0.07120000   1.008000   ; qtot -5.880621
  737         h1     26    ccc     H8    737 -0.07120000   1.008000   ; qtot -5.951821
  738         c3     26    ccc     C5    738 -0.39330000  12.010000   ; qtot -6.345121
  739         hc     26    ccc     H9    739 0.08130000   1.008000   ; qtot -6.263821
  740         hc     26    ccc    H10    740 0.08130000   1.008000   ; qtot -6.182521
  741          c     26    ccc     C6    741 1.08970000  12.010000   ; qtot -5.092821
  742          o     26    ccc     O2    742 -0.96050000  16.000000   ; qtot -6.053321
  743          o     26    ccc     O3    743 -0.96050000  16.000000   ; qtot -7.013821
  744         c3     26    ccc     C7    744 0.32800000  12.010000   ; qtot -6.685821
  745         h1     26    ccc    H11    745 -0.07120000   1.008000   ; qtot -6.757021
  746         h1     26    ccc    H12    746 -0.07120000   1.008000   ; qtot -6.828221
  747         c3     26    ccc     C8    747 -0.39330000  12.010000   ; qtot -7.221521
  748         hc     26    ccc    H13    748 0.08130000   1.008000   ; qtot -7.140221
  749         hc     26    ccc    H14    749 0.08130000   1.008000   ; qtot -7.058921
  750          c     26    ccc     C9    750 1.08970000  12.010000   ; qtot -5.969221
  751          o     26    ccc     O4    751 -0.96050000  16.000000   ; qtot -6.929721
  752          o     26    ccc     O5    752 -0.96050000  16.000000   ; qtot -7.890221
  753         os     26    ccc     O1    753 -0.11060000  16.000000   ; qtot -8.000821
; residue   27 ccc rtp ccc q -2.0
  754         c3     27    ccc     C3    754 -0.04070000  12.010000   ; qtot -8.041521
  755         h1     27    ccc     H5    755 0.04610000   1.008000   ; qtot -7.995421
  756         h1     27    ccc     H6    756 0.04610000   1.008000   ; qtot -7.949321
  757         c3     27    ccc     C2    757 -0.02540000  12.010000   ; qtot -7.974721
  758         hc     27    ccc     H3    758 0.00850000   1.008000   ; qtot -7.966221
  759         hc     27    ccc     H4    759 0.00850000   1.008000   ; qtot -7.957721
  760         c3     27    ccc     C1    760 0.60210000  12.010000   ; qtot -7.355621
  761         h1     27    ccc     H1    761 -0.09250000   1.008000   ; qtot -7.448121
  762         h1     27    ccc     H2    762 -0.09250000   1.008000   ; qtot -7.540621
  763         n3     27    ccc     N1    763 -0.59700000  14.010000   ; qtot -8.137621
  764         c3     27    ccc     C4    764 0.32800000  12.010000   ; qtot -7.809621
  765         h1     27    ccc     H7    765 -0.07120000   1.008000   ; qtot -7.880821
  766         h1     27    ccc     H8    766 -0.07120000   1.008000   ; qtot -7.952021
  767         c3     27    ccc     C5    767 -0.39330000  12.010000   ; qtot -8.345321
  768         hc     27    ccc     H9    768 0.08130000   1.008000   ; qtot -8.264021
  769         hc     27    ccc    H10    769 0.08130000   1.008000   ; qtot -8.182721
  770          c     27    ccc     C6    770 1.08970000  12.010000   ; qtot -7.093021
  771          o     27    ccc     O2    771 -0.96050000  16.000000   ; qtot -8.053521
  772          o     27    ccc     O3    772 -0.96050000  16.000000   ; qtot -9.014021
  773         c3     27    ccc     C7    773 0.32800000  12.010000   ; qtot -8.686021
  774         h1     27    ccc    H11    774 -0.07120000   1.008000   ; qtot -8.757221
  775         h1     27    ccc    H12    775 -0.07120000   1.008000   ; qtot -8.828421
  776         c3     27    ccc     C8    776 -0.39330000  12.010000   ; qtot -9.221721
  777         hc     27    ccc    H13    777 0.08130000   1.008000   ; qtot -9.140421
  778         hc     27    ccc    H14    778 0.08130000   1.008000   ; qtot -9.059121
  779          c     27    ccc     C9    779 1.08970000  12.010000   ; qtot -7.969421
  780          o     27    ccc     O4    780 -0.96050000  16.000000   ; qtot -8.929921
  781          o     27    ccc     O5    781 -0.96050000  16.000000   ; qtot -9.890421
  782         os     27    ccc     O1    782 -0.11060000  16.000000   ; qtot -10.001021
; residue   28 ccc rtp ccc q -2.0
  783         c3     28    ccc     C3    783 -0.04070000  12.010000   ; qtot -10.041721
  784         h1     28    ccc     H5    784 0.04610000   1.008000   ; qtot -9.995621
  785         h1     28    ccc     H6    785 0.04610000   1.008000   ; qtot -9.949521
  786         c3     28    ccc     C2    786 -0.02540000  12.010000   ; qtot -9.974921
  787         hc     28    ccc     H3    787 0.00850000   1.008000   ; qtot -9.966421
  788         hc     28    ccc     H4    788 0.00850000   1.008000   ; qtot -9.957921
  789         c3     28    ccc     C1    789 0.60210000  12.010000   ; qtot -9.355821
  790         h1     28    ccc     H1    790 -0.09250000   1.008000   ; qtot -9.448321
  791         h1     28    ccc     H2    791 -0.09250000   1.008000   ; qtot -9.540821
  792         n3     28    ccc     N1    792 -0.59700000  14.010000   ; qtot -10.137821
  793         c3     28    ccc     C4    793 0.32800000  12.010000   ; qtot -9.809821
  794         h1     28    ccc     H7    794 -0.07120000   1.008000   ; qtot -9.881021
  795         h1     28    ccc     H8    795 -0.07120000   1.008000   ; qtot -9.952221
  796         c3     28    ccc     C5    796 -0.39330000  12.010000   ; qtot -10.345521
  797         hc     28    ccc     H9    797 0.08130000   1.008000   ; qtot -10.264221
  798         hc     28    ccc    H10    798 0.08130000   1.008000   ; qtot -10.182921
  799          c     28    ccc     C6    799 1.08970000  12.010000   ; qtot -9.093221
  800          o     28    ccc     O2    800 -0.96050000  16.000000   ; qtot -10.053721
  801          o     28    ccc     O3    801 -0.96050000  16.000000   ; qtot -11.014221
  802         c3     28    ccc     C7    802 0.32800000  12.010000   ; qtot -10.686221
  803         h1     28    ccc    H11    803 -0.07120000   1.008000   ; qtot -10.757421
  804         h1     28    ccc    H12    804 -0.07120000   1.008000   ; qtot -10.828621
  805         c3     28    ccc     C8    805 -0.39330000  12.010000   ; qtot -11.221921
  806         hc     28    ccc    H13    806 0.08130000   1.008000   ; qtot -11.140621
  807         hc     28    ccc    H14    807 0.08130000   1.008000   ; qtot -11.059321
  808          c     28    ccc     C9    808 1.08970000  12.010000   ; qtot -9.969621
  809          o     28    ccc     O4    809 -0.96050000  16.000000   ; qtot -10.930121
  810          o     28    ccc     O5    810 -0.96050000  16.000000   ; qtot -11.890621
  811         os     28    ccc     O1    811 -0.11060000  16.000000   ; qtot -12.001221
; residue   29 ccc rtp ccc q -2.0
  812         c3     29    ccc     C3    812 -0.04070000  12.010000   ; qtot -12.041921
  813         h1     29    ccc     H5    813 0.04610000   1.008000   ; qtot -11.995821
  814         h1     29    ccc     H6    814 0.04610000   1.008000   ; qtot -11.949721
  815         c3     29    ccc     C2    815 -0.02540000  12.010000   ; qtot -11.975121
  816         hc     29    ccc     H3    816 0.00850000   1.008000   ; qtot -11.966621
  817         hc     29    ccc     H4    817 0.00850000   1.008000   ; qtot -11.958121
  818         c3     29    ccc     C1    818 0.60210000  12.010000   ; qtot -11.356021
  819         h1     29    ccc     H1    819 -0.09250000   1.008000   ; qtot -11.448521
  820         h1     29    ccc     H2    820 -0.09250000   1.008000   ; qtot -11.541021
  821         n3     29    ccc     N1    821 -0.59700000  14.010000   ; qtot -12.138021
  822         c3     29    ccc     C4    822 0.32800000  12.010000   ; qtot -11.810021
  823         h1     29    ccc     H7    823 -0.07120000   1.008000   ; qtot -11.881221
  824         h1     29    ccc     H8    824 -0.07120000   1.008000   ; qtot -11.952421
  825         c3     29    ccc     C5    825 -0.39330000  12.010000   ; qtot -12.345721
  826         hc     29    ccc     H9    826 0.08130000   1.008000   ; qtot -12.264421
  827         hc     29    ccc    H10    827 0.08130000   1.008000   ; qtot -12.183121
  828          c     29    ccc     C6    828 1.08970000  12.010000   ; qtot -11.093421
  829          o     29    ccc     O2    829 -0.96050000  16.000000   ; qtot -12.053921
  830          o     29    ccc     O3    830 -0.96050000  16.000000   ; qtot -13.014421
  831         c3     29    ccc     C7    831 0.32800000  12.010000   ; qtot -12.686421
  832         h1     29    ccc    H11    832 -0.07120000   1.008000   ; qtot -12.757621
  833         h1     29    ccc    H12    833 -0.07120000   1.008000   ; qtot -12.828821
  834         c3     29    ccc     C8    834 -0.39330000  12.010000   ; qtot -13.222121
  835         hc     29    ccc    H13    835 0.08130000   1.008000   ; qtot -13.140821
  836         hc     29    ccc    H14    836 0.08130000   1.008000   ; qtot -13.059521
  837          c     29    ccc     C9    837 1.08970000  12.010000   ; qtot -11.969821
  838          o     29    ccc     O4    838 -0.96050000  16.000000   ; qtot -12.930321
  839          o     29    ccc     O5    839 -0.96050000  16.000000   ; qtot -13.890821
  840         os     29    ccc     O1    840 -0.11060000  16.000000   ; qtot -14.001421
; residue   30 ccc rtp ccc q -2.0
  841         c3     30    ccc     C3    841 -0.04070000  12.010000   ; qtot -14.042121
  842         h1     30    ccc     H5    842 0.04610000   1.008000   ; qtot -13.996021
  843         h1     30    ccc     H6    843 0.04610000   1.008000   ; qtot -13.949921
  844         c3     30    ccc     C2    844 -0.02540000  12.010000   ; qtot -13.975321
  845         hc     30    ccc     H3    845 0.00850000   1.008000   ; qtot -13.966821
  846         hc     30    ccc     H4    846 0.00850000   1.008000   ; qtot -13.958321
  847         c3     30    ccc     C1    847 0.60210000  12.010000   ; qtot -13.356221
  848         h1     30    ccc     H1    848 -0.09250000   1.008000   ; qtot -13.448721
  849         h1     30    ccc     H2    849 -0.09250000   1.008000   ; qtot -13.541221
  850         n3     30    ccc     N1    850 -0.59700000  14.010000   ; qtot -14.138221
  851         c3     30    ccc     C4    851 0.32800000  12.010000   ; qtot -13.810221
  852         h1     30    ccc     H7    852 -0.07120000   1.008000   ; qtot -13.881421
  853         h1     30    ccc     H8    853 -0.07120000   1.008000   ; qtot -13.952621
  854         c3     30    ccc     C5    854 -0.39330000  12.010000   ; qtot -14.345921
  855         hc     30    ccc     H9    855 0.08130000   1.008000   ; qtot -14.264621
  856         hc     30    ccc    H10    856 0.08130000   1.008000   ; qtot -14.183321
  857          c     30    ccc     C6    857 1.08970000  12.010000   ; qtot -13.093621
  858          o     30    ccc     O2    858 -0.96050000  16.000000   ; qtot -14.054121
  859          o     30    ccc     O3    859 -0.96050000  16.000000   ; qtot -15.014621
  860         c3     30    ccc     C7    860 0.32800000  12.010000   ; qtot -14.686621
  861         h1     30    ccc    H11    861 -0.07120000   1.008000   ; qtot -14.757821
  862         h1     30    ccc    H12    862 -0.07120000   1.008000   ; qtot -14.829021
  863         c3     30    ccc     C8    863 -0.39330000  12.010000   ; qtot -15.222321
  864         hc     30    ccc    H13    864 0.08130000   1.008000   ; qtot -15.141021
  865         hc     30    ccc    H14    865 0.08130000   1.008000   ; qtot -15.059721
  866          c     30    ccc     C9    866 1.08970000  12.010000   ; qtot -13.970021
  867          o     30    ccc     O4    867 -0.96050000  16.000000   ; qtot -14.930521
  868          o     30    ccc     O5    868 -0.96050000  16.000000   ; qtot -15.891021
  869         os     30    ccc     O1    869 -0.11060000  16.000000   ; qtot -16.001621
; residue   31 ccc rtp ccc q -2.0
  870         c3     31    ccc     C3    870 -0.04070000  12.010000   ; qtot -16.042321
  871         h1     31    ccc     H5    871 0.04610000   1.008000   ; qtot -15.996221
  872         h1     31    ccc     H6    872 0.04610000   1.008000   ; qtot -15.950121
  873         c3     31    ccc     C2    873 -0.02540000  12.010000   ; qtot -15.975521
  874         hc     31    ccc     H3    874 0.00850000   1.008000   ; qtot -15.967021
  875         hc     31    ccc     H4    875 0.00850000   1.008000   ; qtot -15.958521
  876         c3     31    ccc     C1    876 0.60210000  12.010000   ; qtot -15.356421
  877         h1     31    ccc     H1    877 -0.09250000   1.008000   ; qtot -15.448921
  878         h1     31    ccc     H2    878 -0.09250000   1.008000   ; qtot -15.541421
  879         n3     31    ccc     N1    879 -0.59700000  14.010000   ; qtot -16.138421
  880         c3     31    ccc     C4    880 0.32800000  12.010000   ; qtot -15.810421
  881         h1     31    ccc     H7    881 -0.07120000   1.008000   ; qtot -15.881621
  882         h1     31    ccc     H8    882 -0.07120000   1.008000   ; qtot -15.952821
  883         c3     31    ccc     C5    883 -0.39330000  12.010000   ; qtot -16.346121
  884         hc     31    ccc     H9    884 0.08130000   1.008000   ; qtot -16.264821
  885         hc     31    ccc    H10    885 0.08130000   1.008000   ; qtot -16.183521
  886          c     31    ccc     C6    886 1.08970000  12.010000   ; qtot -15.093821
  887          o     31    ccc     O2    887 -0.96050000  16.000000   ; qtot -16.054321
  888          o     31    ccc     O3    888 -0.96050000  16.000000   ; qtot -17.014821
  889         c3     31    ccc     C7    889 0.32800000  12.010000   ; qtot -16.686821
  890         h1     31    ccc    H11    890 -0.07120000   1.008000   ; qtot -16.758021
  891         h1     31    ccc    H12    891 -0.07120000   1.008000   ; qtot -16.829221
  892         c3     31    ccc     C8    892 -0.39330000  12.010000   ; qtot -17.222521
  893         hc     31    ccc    H13    893 0.08130000   1.008000   ; qtot -17.141221
  894         hc     31    ccc    H14    894 0.08130000   1.008000   ; qtot -17.059921
  895          c     31    ccc     C9    895 1.08970000  12.010000   ; qtot -15.970221
  896          o     31    ccc     O4    896 -0.96050000  16.000000   ; qtot -16.930721
  897          o     31    ccc     O5    897 -0.96050000  16.000000   ; qtot -17.891221
  898         os     31    ccc     O1    898 -0.11060000  16.000000   ; qtot -18.001821
; residue   32 ccc rtp ccc q -2.0
  899         c3     32    ccc     C3    899 -0.04070000  12.010000   ; qtot -18.042521
  900         h1     32    ccc     H5    900 0.04610000   1.008000   ; qtot -17.996421
  901         h1     32    ccc     H6    901 0.04610000   1.008000   ; qtot -17.950321
  902         c3     32    ccc     C2    902 -0.02540000  12.010000   ; qtot -17.975721
  903         hc     32    ccc     H3    903 0.00850000   1.008000   ; qtot -17.967221
  904         hc     32    ccc     H4    904 0.00850000   1.008000   ; qtot -17.958721
  905         c3     32    ccc     C1    905 0.60210000  12.010000   ; qtot -17.356621
  906         h1     32    ccc     H1    906 -0.09250000   1.008000   ; qtot -17.449121
  907         h1     32    ccc     H2    907 -0.09250000   1.008000   ; qtot -17.541621
  908         n3     32    ccc     N1    908 -0.59700000  14.010000   ; qtot -18.138621
  909         c3     32    ccc     C4    909 0.32800000  12.010000   ; qtot -17.810621
  910         h1     32    ccc     H7    910 -0.07120000   1.008000   ; qtot -17.881821
  911         h1     32    ccc     H8    911 -0.07120000   1.008000   ; qtot -17.953021
  912         c3     32    ccc     C5    912 -0.39330000  12.010000   ; qtot -18.346321
  913         hc     32    ccc     H9    913 0.08130000   1.008000   ; qtot -18.265021
  914         hc     32    ccc    H10    914 0.08130000   1.008000   ; qtot -18.183721
  915          c     32    ccc     C6    915 1.08970000  12.010000   ; qtot -17.094021
  916          o     32    ccc     O2    916 -0.96050000  16.000000   ; qtot -18.054521
  917          o     32    ccc     O3    917 -0.96050000  16.000000   ; qtot -19.015021
  918         c3     32    ccc     C7    918 0.32800000  12.010000   ; qtot -18.687021
  919         h1     32    ccc    H11    919 -0.07120000   1.008000   ; qtot -18.758221
  920         h1     32    ccc    H12    920 -0.07120000   1.008000   ; qtot -18.829421
  921         c3     32    ccc     C8    921 -0.39330000  12.010000   ; qtot -19.222721
  922         hc     32    ccc    H13    922 0.08130000   1.008000   ; qtot -19.141421
  923         hc     32    ccc    H14    923 0.08130000   1.008000   ; qtot -19.060121
  924          c     32    ccc     C9    924 1.08970000  12.010000   ; qtot -17.970421
  925          o     32    ccc     O4    925 -0.96050000  16.000000   ; qtot -18.930921
  926          o     32    ccc     O5    926 -0.96050000  16.000000   ; qtot -19.891421
  927         os     32    ccc     O1    927 -0.11060000  16.000000   ; qtot -20.002021
; residue   33 ccc rtp ccc q -2.0
  928         c3     33    ccc     C3    928 -0.04070000  12.010000   ; qtot -20.042721
  929         h1     33    ccc     H5    929 0.04610000   1.008000   ; qtot -19.996621
  930         h1     33    ccc     H6    930 0.04610000   1.008000   ; qtot -19.950521
  931         c3     33    ccc     C2    931 -0.02540000  12.010000   ; qtot -19.975921
  932         hc     33    ccc     H3    932 0.00850000   1.008000   ; qtot -19.967421
  933         hc     33    ccc     H4    933 0.00850000   1.008000   ; qtot -19.958921
  934         c3     33    ccc     C1    934 0.60210000  12.010000   ; qtot -19.356821
  935         h1     33    ccc     H1    935 -0.09250000   1.008000   ; qtot -19.449321
  936         h1     33    ccc     H2    936 -0.09250000   1.008000   ; qtot -19.541821
  937         n3     33    ccc     N1    937 -0.59700000  14.010000   ; qtot -20.138821
  938         c3     33    ccc     C4    938 0.32800000  12.010000   ; qtot -19.810821
  939         h1     33    ccc     H7    939 -0.07120000   1.008000   ; qtot -19.882021
  940         h1     33    ccc     H8    940 -0.07120000   1.008000   ; qtot -19.953221
  941         c3     33    ccc     C5    941 -0.39330000  12.010000   ; qtot -20.346521
  942         hc     33    ccc     H9    942 0.08130000   1.008000   ; qtot -20.265221
  943         hc     33    ccc    H10    943 0.08130000   1.008000   ; qtot -20.183921
  944          c     33    ccc     C6    944 1.08970000  12.010000   ; qtot -19.094221
  945          o     33    ccc     O2    945 -0.96050000  16.000000   ; qtot -20.054721
  946          o     33    ccc     O3    946 -0.96050000  16.000000   ; qtot -21.015221
  947         c3     33    ccc     C7    947 0.32800000  12.010000   ; qtot -20.687221
  948         h1     33    ccc    H11    948 -0.07120000   1.008000   ; qtot -20.758421
  949         h1     33    ccc    H12    949 -0.07120000   1.008000   ; qtot -20.829621
  950         c3     33    ccc     C8    950 -0.39330000  12.010000   ; qtot -21.222921
  951         hc     33    ccc    H13    951 0.08130000   1.008000   ; qtot -21.141621
  952         hc     33    ccc    H14    952 0.08130000   1.008000   ; qtot -21.060321
  953          c     33    ccc     C9    953 1.08970000  12.010000   ; qtot -19.970621
  954          o     33    ccc     O4    954 -0.96050000  16.000000   ; qtot -20.931121
  955          o     33    ccc     O5    955 -0.96050000  16.000000   ; qtot -21.891621
  956         os     33    ccc     O1    956 -0.11060000  16.000000   ; qtot -22.002221
; residue   34 ccc rtp ccc q -2.0
  957         c3     34    ccc     C3    957 -0.04070000  12.010000   ; qtot -22.042921
  958         h1     34    ccc     H5    958 0.04610000   1.008000   ; qtot -21.996821
  959         h1     34    ccc     H6    959 0.04610000   1.008000   ; qtot -21.950721
  960         c3     34    ccc     C2    960 -0.02540000  12.010000   ; qtot -21.976121
  961         hc     34    ccc     H3    961 0.00850000   1.008000   ; qtot -21.967621
  962         hc     34    ccc     H4    962 0.00850000   1.008000   ; qtot -21.959121
  963         c3     34    ccc     C1    963 0.60210000  12.010000   ; qtot -21.357021
  964         h1     34    ccc     H1    964 -0.09250000   1.008000   ; qtot -21.449521
  965         h1     34    ccc     H2    965 -0.09250000   1.008000   ; qtot -21.542021
  966         n3     34    ccc     N1    966 -0.59700000  14.010000   ; qtot -22.139021
  967         c3     34    ccc     C4    967 0.32800000  12.010000   ; qtot -21.811021
  968         h1     34    ccc     H7    968 -0.07120000   1.008000   ; qtot -21.882221
  969         h1     34    ccc     H8    969 -0.07120000   1.008000   ; qtot -21.953421
  970         c3     34    ccc     C5    970 -0.39330000  12.010000   ; qtot -22.346721
  971         hc     34    ccc     H9    971 0.08130000   1.008000   ; qtot -22.265421
  972         hc     34    ccc    H10    972 0.08130000   1.008000   ; qtot -22.184121
  973          c     34    ccc     C6    973 1.08970000  12.010000   ; qtot -21.094421
  974          o     34    ccc     O2    974 -0.96050000  16.000000   ; qtot -22.054921
  975          o     34    ccc     O3    975 -0.96050000  16.000000   ; qtot -23.015421
  976         c3     34    ccc     C7    976 0.32800000  12.010000   ; qtot -22.687421
  977         h1     34    ccc    H11    977 -0.07120000   1.008000   ; qtot -22.758621
  978         h1     34    ccc    H12    978 -0.07120000   1.008000   ; qtot -22.829821
  979         c3     34    ccc     C8    979 -0.39330000  12.010000   ; qtot -23.223121
  980         hc     34    ccc    H13    980 0.08130000   1.008000   ; qtot -23.141821
  981         hc     34    ccc    H14    981 0.08130000   1.008000   ; qtot -23.060521
  982          c     34    ccc     C9    982 1.08970000  12.010000   ; qtot -21.970821
  983          o     34    ccc     O4    983 -0.96050000  16.000000   ; qtot -22.931321
  984          o     34    ccc     O5    984 -0.96050000  16.000000   ; qtot -23.891821
  985         os     34    ccc     O1    985 -0.11060000  16.000000   ; qtot -24.002421
; residue   35 ccc rtp ccc q -2.0
  986         c3     35    ccc     C3    986 -0.04070000  12.010000   ; qtot -24.043121
  987         h1     35    ccc     H5    987 0.04610000   1.008000   ; qtot -23.997021
  988         h1     35    ccc     H6    988 0.04610000   1.008000   ; qtot -23.950921
  989         c3     35    ccc     C2    989 -0.02540000  12.010000   ; qtot -23.976321
  990         hc     35    ccc     H3    990 0.00850000   1.008000   ; qtot -23.967821
  991         hc     35    ccc     H4    991 0.00850000   1.008000   ; qtot -23.959321
  992         c3     35    ccc     C1    992 0.60210000  12.010000   ; qtot -23.357221
  993         h1     35    ccc     H1    993 -0.09250000   1.008000   ; qtot -23.449721
  994         h1     35    ccc     H2    994 -0.09250000   1.008000   ; qtot -23.542221
  995         n3     35    ccc     N1    995 -0.59700000  14.010000   ; qtot -24.139221
  996         c3     35    ccc     C4    996 0.32800000  12.010000   ; qtot -23.811221
  997         h1     35    ccc     H7    997 -0.07120000   1.008000   ; qtot -23.882421
  998         h1     35    ccc     H8    998 -0.07120000   1.008000   ; qtot -23.953621
  999         c3     35    ccc     C5    999 -0.39330000  12.010000   ; qtot -24.346921
 1000         hc     35    ccc     H9   1000 0.08130000   1.008000   ; qtot -24.265621
 1001         hc     35    ccc    H10   1001 0.08130000   1.008000   ; qtot -24.184321
 1002          c     35    ccc     C6   1002 1.08970000  12.010000   ; qtot -23.094621
 1003          o     35    ccc     O2   1003 -0.96050000  16.000000   ; qtot -24.055121
 1004          o     35    ccc     O3   1004 -0.96050000  16.000000   ; qtot -25.015621
 1005         c3     35    ccc     C7   1005 0.32800000  12.010000   ; qtot -24.687621
 1006         h1     35    ccc    H11   1006 -0.07120000   1.008000   ; qtot -24.758821
 1007         h1     35    ccc    H12   1007 -0.07120000   1.008000   ; qtot -24.830021
 1008         c3     35    ccc     C8   1008 -0.39330000  12.010000   ; qtot -25.223321
 1009         hc     35    ccc    H13   1009 0.08130000   1.008000   ; qtot -25.142021
 1010         hc     35    ccc    H14   1010 0.08130000   1.008000   ; qtot -25.060721
 1011          c     35    ccc     C9   1011 1.08970000  12.010000   ; qtot -23.971021
 1012          o     35    ccc     O4   1012 -0.96050000  16.000000   ; qtot -24.931521
 1013          o     35    ccc     O5   1013 -0.96050000  16.000000   ; qtot -25.892021
 1014         os     35    ccc     O1   1014 -0.11060000  16.000000   ; qtot -26.002621
; residue   36 ccc rtp ccc q -2.0
 1015         c3     36    ccc     C3   1015 -0.04070000  12.010000   ; qtot -26.043321
 1016         h1     36    ccc     H5   1016 0.04610000   1.008000   ; qtot -25.997221
 1017         h1     36    ccc     H6   1017 0.04610000   1.008000   ; qtot -25.951121
 1018         c3     36    ccc     C2   1018 -0.02540000  12.010000   ; qtot -25.976521
 1019         hc     36    ccc     H3   1019 0.00850000   1.008000   ; qtot -25.968021
 1020         hc     36    ccc     H4   1020 0.00850000   1.008000   ; qtot -25.959521
 1021         c3     36    ccc     C1   1021 0.60210000  12.010000   ; qtot -25.357421
 1022         h1     36    ccc     H1   1022 -0.09250000   1.008000   ; qtot -25.449921
 1023         h1     36    ccc     H2   1023 -0.09250000   1.008000   ; qtot -25.542421
 1024         n3     36    ccc     N1   1024 -0.59700000  14.010000   ; qtot -26.139421
 1025         c3     36    ccc     C4   1025 0.32800000  12.010000   ; qtot -25.811421
 1026         h1     36    ccc     H7   1026 -0.07120000   1.008000   ; qtot -25.882621
 1027         h1     36    ccc     H8   1027 -0.07120000   1.008000   ; qtot -25.953821
 1028         c3     36    ccc     C5   1028 -0.39330000  12.010000   ; qtot -26.347121
 1029         hc     36    ccc     H9   1029 0.08130000   1.008000   ; qtot -26.265821
 1030         hc     36    ccc    H10   1030 0.08130000   1.008000   ; qtot -26.184521
 1031          c     36    ccc     C6   1031 1.08970000  12.010000   ; qtot -25.094821
 1032          o     36    ccc     O2   1032 -0.96050000  16.000000   ; qtot -26.055321
 1033          o     36    ccc     O3   1033 -0.96050000  16.000000   ; qtot -27.015821
 1034         c3     36    ccc     C7   1034 0.32800000  12.010000   ; qtot -26.687821
 1035         h1     36    ccc    H11   1035 -0.07120000   1.008000   ; qtot -26.759021
 1036         h1     36    ccc    H12   1036 -0.07120000   1.008000   ; qtot -26.830221
 1037         c3     36    ccc     C8   1037 -0.39330000  12.010000   ; qtot -27.223521
 1038         hc     36    ccc    H13   1038 0.08130000   1.008000   ; qtot -27.142221
 1039         hc     36    ccc    H14   1039 0.08130000   1.008000   ; qtot -27.060921
 1040          c     36    ccc     C9   1040 1.08970000  12.010000   ; qtot -25.971221
 1041          o     36    ccc     O4   1041 -0.96050000  16.000000   ; qtot -26.931721
 1042          o     36    ccc     O5   1042 -0.96050000  16.000000   ; qtot -27.892221
 1043         os     36    ccc     O1   1043 -0.11060000  16.000000   ; qtot -28.002821
; residue   37 ccc rtp ccc q -2.0
 1044         c3     37    ccc     C3   1044 -0.04070000  12.010000   ; qtot -28.043521
 1045         h1     37    ccc     H5   1045 0.04610000   1.008000   ; qtot -27.997421
 1046         h1     37    ccc     H6   1046 0.04610000   1.008000   ; qtot -27.951321
 1047         c3     37    ccc     C2   1047 -0.02540000  12.010000   ; qtot -27.976721
 1048         hc     37    ccc     H3   1048 0.00850000   1.008000   ; qtot -27.968221
 1049         hc     37    ccc     H4   1049 0.00850000   1.008000   ; qtot -27.959721
 1050         c3     37    ccc     C1   1050 0.60210000  12.010000   ; qtot -27.357621
 1051         h1     37    ccc     H1   1051 -0.09250000   1.008000   ; qtot -27.450121
 1052         h1     37    ccc     H2   1052 -0.09250000   1.008000   ; qtot -27.542621
 1053         n3     37    ccc     N1   1053 -0.59700000  14.010000   ; qtot -28.139621
 1054         c3     37    ccc     C4   1054 0.32800000  12.010000   ; qtot -27.811621
 1055         h1     37    ccc     H7   1055 -0.07120000   1.008000   ; qtot -27.882821
 1056         h1     37    ccc     H8   1056 -0.07120000   1.008000   ; qtot -27.954021
 1057         c3     37    ccc     C5   1057 -0.39330000  12.010000   ; qtot -28.347321
 1058         hc     37    ccc     H9   1058 0.08130000   1.008000   ; qtot -28.266021
 1059         hc     37    ccc    H10   1059 0.08130000   1.008000   ; qtot -28.184721
 1060          c     37    ccc     C6   1060 1.08970000  12.010000   ; qtot -27.095021
 1061          o     37    ccc     O2   1061 -0.96050000  16.000000   ; qtot -28.055521
 1062          o     37    ccc     O3   1062 -0.96050000  16.000000   ; qtot -29.016021
 1063         c3     37    ccc     C7   1063 0.32800000  12.010000   ; qtot -28.688021
 1064         h1     37    ccc    H11   1064 -0.07120000   1.008000   ; qtot -28.759221
 1065         h1     37    ccc    H12   1065 -0.07120000   1.008000   ; qtot -28.830421
 1066         c3     37    ccc     C8   1066 -0.39330000  12.010000   ; qtot -29.223721
 1067         hc     37    ccc    H13   1067 0.08130000   1.008000   ; qtot -29.142421
 1068         hc     37    ccc    H14   1068 0.08130000   1.008000   ; qtot -29.061121
 1069          c     37    ccc     C9   1069 1.08970000  12.010000   ; qtot -27.971421
 1070          o     37    ccc     O4   1070 -0.96050000  16.000000   ; qtot -28.931921
 1071          o     37    ccc     O5   1071 -0.96050000  16.000000   ; qtot -29.892421
 1072         os     37    ccc     O1   1072 -0.11060000  16.000000   ; qtot -30.003021
; residue   38 ccc rtp ccc q -2.0
 1073         c3     38    ccc     C3   1073 -0.04070000  12.010000   ; qtot -30.043721
 1074         h1     38    ccc     H5   1074 0.04610000   1.008000   ; qtot -29.997621
 1075         h1     38    ccc     H6   1075 0.04610000   1.008000   ; qtot -29.951521
 1076         c3     38    ccc     C2   1076 -0.02540000  12.010000   ; qtot -29.976921
 1077         hc     38    ccc     H3   1077 0.00850000   1.008000   ; qtot -29.968421
 1078         hc     38    ccc     H4   1078 0.00850000   1.008000   ; qtot -29.959921
 1079         c3     38    ccc     C1   1079 0.60210000  12.010000   ; qtot -29.357821
 1080         h1     38    ccc     H1   1080 -0.09250000   1.008000   ; qtot -29.450321
 1081         h1     38    ccc     H2   1081 -0.09250000   1.008000   ; qtot -29.542821
 1082         n3     38    ccc     N1   1082 -0.59700000  14.010000   ; qtot -30.139821
 1083         c3     38    ccc     C4   1083 0.32800000  12.010000   ; qtot -29.811821
 1084         h1     38    ccc     H7   1084 -0.07120000   1.008000   ; qtot -29.883021
 1085         h1     38    ccc     H8   1085 -0.07120000   1.008000   ; qtot -29.954221
 1086         c3     38    ccc     C5   1086 -0.39330000  12.010000   ; qtot -30.347521
 1087         hc     38    ccc     H9   1087 0.08130000   1.008000   ; qtot -30.266221
 1088         hc     38    ccc    H10   1088 0.08130000   1.008000   ; qtot -30.184921
 1089          c     38    ccc     C6   1089 1.08970000  12.010000   ; qtot -29.095221
 1090          o     38    ccc     O2   1090 -0.96050000  16.000000   ; qtot -30.055721
 1091          o     38    ccc     O3   1091 -0.96050000  16.000000   ; qtot -31.016221
 1092         c3     38    ccc     C7   1092 0.32800000  12.010000   ; qtot -30.688221
 1093         h1     38    ccc    H11   1093 -0.07120000   1.008000   ; qtot -30.759421
 1094         h1     38    ccc    H12   1094 -0.07120000   1.008000   ; qtot -30.830621
 1095         c3     38    ccc     C8   1095 -0.39330000  12.010000   ; qtot -31.223921
 1096         hc     38    ccc    H13   1096 0.08130000   1.008000   ; qtot -31.142621
 1097         hc     38    ccc    H14   1097 0.08130000   1.008000   ; qtot -31.061321
 1098          c     38    ccc     C9   1098 1.08970000  12.010000   ; qtot -29.971621
 1099          o     38    ccc     O4   1099 -0.96050000  16.000000   ; qtot -30.932121
 1100          o     38    ccc     O5   1100 -0.96050000  16.000000   ; qtot -31.892621
 1101         os     38    ccc     O1   1101 -0.11060000  16.000000   ; qtot -32.003221
; residue   39 ccc rtp ccc q -2.0
 1102         c3     39    ccc     C3   1102 -0.04070000  12.010000   ; qtot -32.043921
 1103         h1     39    ccc     H5   1103 0.04610000   1.008000   ; qtot -31.997821
 1104         h1     39    ccc     H6   1104 0.04610000   1.008000   ; qtot -31.951721
 1105         c3     39    ccc     C2   1105 -0.02540000  12.010000   ; qtot -31.977121
 1106         hc     39    ccc     H3   1106 0.00850000   1.008000   ; qtot -31.968621
 1107         hc     39    ccc     H4   1107 0.00850000   1.008000   ; qtot -31.960121
 1108         c3     39    ccc     C1   1108 0.60210000  12.010000   ; qtot -31.358021
 1109         h1     39    ccc     H1   1109 -0.09250000   1.008000   ; qtot -31.450521
 1110         h1     39    ccc     H2   1110 -0.09250000   1.008000   ; qtot -31.543021
 1111         n3     39    ccc     N1   1111 -0.59700000  14.010000   ; qtot -32.140021
 1112         c3     39    ccc     C4   1112 0.32800000  12.010000   ; qtot -31.812021
 1113         h1     39    ccc     H7   1113 -0.07120000   1.008000   ; qtot -31.883221
 1114         h1     39    ccc     H8   1114 -0.07120000   1.008000   ; qtot -31.954421
 1115         c3     39    ccc     C5   1115 -0.39330000  12.010000   ; qtot -32.347721
 1116         hc     39    ccc     H9   1116 0.08130000   1.008000   ; qtot -32.266421
 1117         hc     39    ccc    H10   1117 0.08130000   1.008000   ; qtot -32.185121
 1118          c     39    ccc     C6   1118 1.08970000  12.010000   ; qtot -31.095421
 1119          o     39    ccc     O2   1119 -0.96050000  16.000000   ; qtot -32.055921
 1120          o     39    ccc     O3   1120 -0.96050000  16.000000   ; qtot -33.016421
 1121         c3     39    ccc     C7   1121 0.32800000  12.010000   ; qtot -32.688421
 1122         h1     39    ccc    H11   1122 -0.07120000   1.008000   ; qtot -32.759621
 1123         h1     39    ccc    H12   1123 -0.07120000   1.008000   ; qtot -32.830821
 1124         c3     39    ccc     C8   1124 -0.39330000  12.010000   ; qtot -33.224121
 1125         hc     39    ccc    H13   1125 0.08130000   1.008000   ; qtot -33.142821
 1126         hc     39    ccc    H14   1126 0.08130000   1.008000   ; qtot -33.061521
 1127          c     39    ccc     C9   1127 1.08970000  12.010000   ; qtot -31.971821
 1128          o     39    ccc     O4   1128 -0.96050000  16.000000   ; qtot -32.932321
 1129          o     39    ccc     O5   1129 -0.96050000  16.000000   ; qtot -33.892821
 1130         os     39    ccc     O1   1130 -0.11060000  16.000000   ; qtot -34.003421
; residue   40 ccc rtp ccc q -2.0
 1131         c3     40    ccc     C3   1131 -0.04070000  12.010000   ; qtot -34.044121
 1132         h1     40    ccc     H5   1132 0.04610000   1.008000   ; qtot -33.998021
 1133         h1     40    ccc     H6   1133 0.04610000   1.008000   ; qtot -33.951921
 1134         c3     40    ccc     C2   1134 -0.02540000  12.010000   ; qtot -33.977321
 1135         hc     40    ccc     H3   1135 0.00850000   1.008000   ; qtot -33.968821
 1136         hc     40    ccc     H4   1136 0.00850000   1.008000   ; qtot -33.960321
 1137         c3     40    ccc     C1   1137 0.60210000  12.010000   ; qtot -33.358221
 1138         h1     40    ccc     H1   1138 -0.09250000   1.008000   ; qtot -33.450721
 1139         h1     40    ccc     H2   1139 -0.09250000   1.008000   ; qtot -33.543221
 1140         n3     40    ccc     N1   1140 -0.59700000  14.010000   ; qtot -34.140221
 1141         c3     40    ccc     C4   1141 0.32800000  12.010000   ; qtot -33.812221
 1142         h1     40    ccc     H7   1142 -0.07120000   1.008000   ; qtot -33.883421
 1143         h1     40    ccc     H8   1143 -0.07120000   1.008000   ; qtot -33.954621
 1144         c3     40    ccc     C5   1144 -0.39330000  12.010000   ; qtot -34.347921
 1145         hc     40    ccc     H9   1145 0.08130000   1.008000   ; qtot -34.266621
 1146         hc     40    ccc    H10   1146 0.08130000   1.008000   ; qtot -34.185321
 1147          c     40    ccc     C6   1147 1.08970000  12.010000   ; qtot -33.095621
 1148          o     40    ccc     O2   1148 -0.96050000  16.000000   ; qtot -34.056121
 1149          o     40    ccc     O3   1149 -0.96050000  16.000000   ; qtot -35.016621
 1150         c3     40    ccc     C7   1150 0.32800000  12.010000   ; qtot -34.688621
 1151         h1     40    ccc    H11   1151 -0.07120000   1.008000   ; qtot -34.759821
 1152         h1     40    ccc    H12   1152 -0.07120000   1.008000   ; qtot -34.831021
 1153         c3     40    ccc     C8   1153 -0.39330000  12.010000   ; qtot -35.224321
 1154         hc     40    ccc    H13   1154 0.08130000   1.008000   ; qtot -35.143021
 1155         hc     40    ccc    H14   1155 0.08130000   1.008000   ; qtot -35.061721
 1156          c     40    ccc     C9   1156 1.08970000  12.010000   ; qtot -33.972021
 1157          o     40    ccc     O4   1157 -0.96050000  16.000000   ; qtot -34.932521
 1158          o     40    ccc     O5   1158 -0.96050000  16.000000   ; qtot -35.893021
 1159         os     40    ccc     O1   1159 -0.11060000  16.000000   ; qtot -36.003621
; residue   41 ccc rtp ccc q -2.0
 1160         c3     41    ccc     C3   1160 -0.04070000  12.010000   ; qtot -36.044321
 1161         h1     41    ccc     H5   1161 0.04610000   1.008000   ; qtot -35.998221
 1162         h1     41    ccc     H6   1162 0.04610000   1.008000   ; qtot -35.952121
 1163         c3     41    ccc     C2   1163 -0.02540000  12.010000   ; qtot -35.977521
 1164         hc     41    ccc     H3   1164 0.00850000   1.008000   ; qtot -35.969021
 1165         hc     41    ccc     H4   1165 0.00850000   1.008000   ; qtot -35.960521
 1166         c3     41    ccc     C1   1166 0.60210000  12.010000   ; qtot -35.358421
 1167         h1     41    ccc     H1   1167 -0.09250000   1.008000   ; qtot -35.450921
 1168         h1     41    ccc     H2   1168 -0.09250000   1.008000   ; qtot -35.543421
 1169         n3     41    ccc     N1   1169 -0.59700000  14.010000   ; qtot -36.140421
 1170         c3     41    ccc     C4   1170 0.32800000  12.010000   ; qtot -35.812421
 1171         h1     41    ccc     H7   1171 -0.07120000   1.008000   ; qtot -35.883621
 1172         h1     41    ccc     H8   1172 -0.07120000   1.008000   ; qtot -35.954821
 1173         c3     41    ccc     C5   1173 -0.39330000  12.010000   ; qtot -36.348121
 1174         hc     41    ccc     H9   1174 0.08130000   1.008000   ; qtot -36.266821
 1175         hc     41    ccc    H10   1175 0.08130000   1.008000   ; qtot -36.185521
 1176          c     41    ccc     C6   1176 1.08970000  12.010000   ; qtot -35.095821
 1177          o     41    ccc     O2   1177 -0.96050000  16.000000   ; qtot -36.056321
 1178          o     41    ccc     O3   1178 -0.96050000  16.000000   ; qtot -37.016821
 1179         c3     41    ccc     C7   1179 0.32800000  12.010000   ; qtot -36.688821
 1180         h1     41    ccc    H11   1180 -0.07120000   1.008000   ; qtot -36.760021
 1181         h1     41    ccc    H12   1181 -0.07120000   1.008000   ; qtot -36.831221
 1182         c3     41    ccc     C8   1182 -0.39330000  12.010000   ; qtot -37.224521
 1183         hc     41    ccc    H13   1183 0.08130000   1.008000   ; qtot -37.143221
 1184         hc     41    ccc    H14   1184 0.08130000   1.008000   ; qtot -37.061921
 1185          c     41    ccc     C9   1185 1.08970000  12.010000   ; qtot -35.972221
 1186          o     41    ccc     O4   1186 -0.96050000  16.000000   ; qtot -36.932721
 1187          o     41    ccc     O5   1187 -0.96050000  16.000000   ; qtot -37.893221
 1188         os     41    ccc     O1   1188 -0.11060000  16.000000   ; qtot -38.003821
; residue   42 ccc rtp ccc q -2.0
 1189         c3     42    ccc     C3   1189 -0.04070000  12.010000   ; qtot -38.044521
 1190         h1     42    ccc     H5   1190 0.04610000   1.008000   ; qtot -37.998421
 1191         h1     42    ccc     H6   1191 0.04610000   1.008000   ; qtot -37.952321
 1192         c3     42    ccc     C2   1192 -0.02540000  12.010000   ; qtot -37.977721
 1193         hc     42    ccc     H3   1193 0.00850000   1.008000   ; qtot -37.969221
 1194         hc     42    ccc     H4   1194 0.00850000   1.008000   ; qtot -37.960721
 1195         c3     42    ccc     C1   1195 0.60210000  12.010000   ; qtot -37.358621
 1196         h1     42    ccc     H1   1196 -0.09250000   1.008000   ; qtot -37.451121
 1197         h1     42    ccc     H2   1197 -0.09250000   1.008000   ; qtot -37.543621
 1198         n3     42    ccc     N1   1198 -0.59700000  14.010000   ; qtot -38.140621
 1199         c3     42    ccc     C4   1199 0.32800000  12.010000   ; qtot -37.812621
 1200         h1     42    ccc     H7   1200 -0.07120000   1.008000   ; qtot -37.883821
 1201         h1     42    ccc     H8   1201 -0.07120000   1.008000   ; qtot -37.955021
 1202         c3     42    ccc     C5   1202 -0.39330000  12.010000   ; qtot -38.348321
 1203         hc     42    ccc     H9   1203 0.08130000   1.008000   ; qtot -38.267021
 1204         hc     42    ccc    H10   1204 0.08130000   1.008000   ; qtot -38.185721
 1205          c     42    ccc     C6   1205 1.08970000  12.010000   ; qtot -37.096021
 1206          o     42    ccc     O2   1206 -0.96050000  16.000000   ; qtot -38.056521
 1207          o     42    ccc     O3   1207 -0.96050000  16.000000   ; qtot -39.017021
 1208         c3     42    ccc     C7   1208 0.32800000  12.010000   ; qtot -38.689021
 1209         h1     42    ccc    H11   1209 -0.07120000   1.008000   ; qtot -38.760221
 1210         h1     42    ccc    H12   1210 -0.07120000   1.008000   ; qtot -38.831421
 1211         c3     42    ccc     C8   1211 -0.39330000  12.010000   ; qtot -39.224721
 1212         hc     42    ccc    H13   1212 0.08130000   1.008000   ; qtot -39.143421
 1213         hc     42    ccc    H14   1213 0.08130000   1.008000   ; qtot -39.062121
 1214          c     42    ccc     C9   1214 1.08970000  12.010000   ; qtot -37.972421
 1215          o     42    ccc     O4   1215 -0.96050000  16.000000   ; qtot -38.932921
 1216          o     42    ccc     O5   1216 -0.96050000  16.000000   ; qtot -39.893421
 1217         os     42    ccc     O1   1217 -0.11060000  16.000000   ; qtot -40.004021
; residue   43 ccc rtp ccc q -2.0
 1218         c3     43    ccc     C3   1218 -0.04070000  12.010000   ; qtot -40.044721
 1219         h1     43    ccc     H5   1219 0.04610000   1.008000   ; qtot -39.998621
 1220         h1     43    ccc     H6   1220 0.04610000   1.008000   ; qtot -39.952521
 1221         c3     43    ccc     C2   1221 -0.02540000  12.010000   ; qtot -39.977921
 1222         hc     43    ccc     H3   1222 0.00850000   1.008000   ; qtot -39.969421
 1223         hc     43    ccc     H4   1223 0.00850000   1.008000   ; qtot -39.960921
 1224         c3     43    ccc     C1   1224 0.60210000  12.010000   ; qtot -39.358821
 1225         h1     43    ccc     H1   1225 -0.09250000   1.008000   ; qtot -39.451321
 1226         h1     43    ccc     H2   1226 -0.09250000   1.008000   ; qtot -39.543821
 1227         n3     43    ccc     N1   1227 -0.59700000  14.010000   ; qtot -40.140821
 1228         c3     43    ccc     C4   1228 0.32800000  12.010000   ; qtot -39.812821
 1229         h1     43    ccc     H7   1229 -0.07120000   1.008000   ; qtot -39.884021
 1230         h1     43    ccc     H8   1230 -0.07120000   1.008000   ; qtot -39.955221
 1231         c3     43    ccc     C5   1231 -0.39330000  12.010000   ; qtot -40.348521
 1232         hc     43    ccc     H9   1232 0.08130000   1.008000   ; qtot -40.267221
 1233         hc     43    ccc    H10   1233 0.08130000   1.008000   ; qtot -40.185921
 1234          c     43    ccc     C6   1234 1.08970000  12.010000   ; qtot -39.096221
 1235          o     43    ccc     O2   1235 -0.96050000  16.000000   ; qtot -40.056721
 1236          o     43    ccc     O3   1236 -0.96050000  16.000000   ; qtot -41.017221
 1237         c3     43    ccc     C7   1237 0.32800000  12.010000   ; qtot -40.689221
 1238         h1     43    ccc    H11   1238 -0.07120000   1.008000   ; qtot -40.760421
 1239         h1     43    ccc    H12   1239 -0.07120000   1.008000   ; qtot -40.831621
 1240         c3     43    ccc     C8   1240 -0.39330000  12.010000   ; qtot -41.224921
 1241         hc     43    ccc    H13   1241 0.08130000   1.008000   ; qtot -41.143621
 1242         hc     43    ccc    H14   1242 0.08130000   1.008000   ; qtot -41.062321
 1243          c     43    ccc     C9   1243 1.08970000  12.010000   ; qtot -39.972621
 1244          o     43    ccc     O4   1244 -0.96050000  16.000000   ; qtot -40.933121
 1245          o     43    ccc     O5   1245 -0.96050000  16.000000   ; qtot -41.893621
 1246         os     43    ccc     O1   1246 -0.11060000  16.000000   ; qtot -42.004221
; residue   44 ccc rtp ccc q -2.0
 1247         c3     44    ccc     C3   1247 -0.04070000  12.010000   ; qtot -42.044921
 1248         h1     44    ccc     H5   1248 0.04610000   1.008000   ; qtot -41.998821
 1249         h1     44    ccc     H6   1249 0.04610000   1.008000   ; qtot -41.952721
 1250         c3     44    ccc     C2   1250 -0.02540000  12.010000   ; qtot -41.978121
 1251         hc     44    ccc     H3   1251 0.00850000   1.008000   ; qtot -41.969621
 1252         hc     44    ccc     H4   1252 0.00850000   1.008000   ; qtot -41.961121
 1253         c3     44    ccc     C1   1253 0.60210000  12.010000   ; qtot -41.359021
 1254         h1     44    ccc     H1   1254 -0.09250000   1.008000   ; qtot -41.451521
 1255         h1     44    ccc     H2   1255 -0.09250000   1.008000   ; qtot -41.544021
 1256         n3     44    ccc     N1   1256 -0.59700000  14.010000   ; qtot -42.141021
 1257         c3     44    ccc     C4   1257 0.32800000  12.010000   ; qtot -41.813021
 1258         h1     44    ccc     H7   1258 -0.07120000   1.008000   ; qtot -41.884221
 1259         h1     44    ccc     H8   1259 -0.07120000   1.008000   ; qtot -41.955421
 1260         c3     44    ccc     C5   1260 -0.39330000  12.010000   ; qtot -42.348721
 1261         hc     44    ccc     H9   1261 0.08130000   1.008000   ; qtot -42.267421
 1262         hc     44    ccc    H10   1262 0.08130000   1.008000   ; qtot -42.186121
 1263          c     44    ccc     C6   1263 1.08970000  12.010000   ; qtot -41.096421
 1264          o     44    ccc     O2   1264 -0.96050000  16.000000   ; qtot -42.056921
 1265          o     44    ccc     O3   1265 -0.96050000  16.000000   ; qtot -43.017421
 1266         c3     44    ccc     C7   1266 0.32800000  12.010000   ; qtot -42.689421
 1267         h1     44    ccc    H11   1267 -0.07120000   1.008000   ; qtot -42.760621
 1268         h1     44    ccc    H12   1268 -0.07120000   1.008000   ; qtot -42.831821
 1269         c3     44    ccc     C8   1269 -0.39330000  12.010000   ; qtot -43.225121
 1270         hc     44    ccc    H13   1270 0.08130000   1.008000   ; qtot -43.143821
 1271         hc     44    ccc    H14   1271 0.08130000   1.008000   ; qtot -43.062521
 1272          c     44    ccc     C9   1272 1.08970000  12.010000   ; qtot -41.972821
 1273          o     44    ccc     O4   1273 -0.96050000  16.000000   ; qtot -42.933321
 1274          o     44    ccc     O5   1274 -0.96050000  16.000000   ; qtot -43.893821
 1275         os     44    ccc     O1   1275 -0.11060000  16.000000   ; qtot -44.004421
; residue   45 ccc rtp ccc q -2.0
 1276         c3     45    ccc     C3   1276 -0.04070000  12.010000   ; qtot -44.045121
 1277         h1     45    ccc     H5   1277 0.04610000   1.008000   ; qtot -43.999021
 1278         h1     45    ccc     H6   1278 0.04610000   1.008000   ; qtot -43.952921
 1279         c3     45    ccc     C2   1279 -0.02540000  12.010000   ; qtot -43.978321
 1280         hc     45    ccc     H3   1280 0.00850000   1.008000   ; qtot -43.969821
 1281         hc     45    ccc     H4   1281 0.00850000   1.008000   ; qtot -43.961321
 1282         c3     45    ccc     C1   1282 0.60210000  12.010000   ; qtot -43.359221
 1283         h1     45    ccc     H1   1283 -0.09250000   1.008000   ; qtot -43.451721
 1284         h1     45    ccc     H2   1284 -0.09250000   1.008000   ; qtot -43.544221
 1285         n3     45    ccc     N1   1285 -0.59700000  14.010000   ; qtot -44.141221
 1286         c3     45    ccc     C4   1286 0.32800000  12.010000   ; qtot -43.813221
 1287         h1     45    ccc     H7   1287 -0.07120000   1.008000   ; qtot -43.884421
 1288         h1     45    ccc     H8   1288 -0.07120000   1.008000   ; qtot -43.955621
 1289         c3     45    ccc     C5   1289 -0.39330000  12.010000   ; qtot -44.348921
 1290         hc     45    ccc     H9   1290 0.08130000   1.008000   ; qtot -44.267621
 1291         hc     45    ccc    H10   1291 0.08130000   1.008000   ; qtot -44.186321
 1292          c     45    ccc     C6   1292 1.08970000  12.010000   ; qtot -43.096621
 1293          o     45    ccc     O2   1293 -0.96050000  16.000000   ; qtot -44.057121
 1294          o     45    ccc     O3   1294 -0.96050000  16.000000   ; qtot -45.017621
 1295         c3     45    ccc     C7   1295 0.32800000  12.010000   ; qtot -44.689621
 1296         h1     45    ccc    H11   1296 -0.07120000   1.008000   ; qtot -44.760821
 1297         h1     45    ccc    H12   1297 -0.07120000   1.008000   ; qtot -44.832021
 1298         c3     45    ccc     C8   1298 -0.39330000  12.010000   ; qtot -45.225321
 1299         hc     45    ccc    H13   1299 0.08130000   1.008000   ; qtot -45.144021
 1300         hc     45    ccc    H14   1300 0.08130000   1.008000   ; qtot -45.062721
 1301          c     45    ccc     C9   1301 1.08970000  12.010000   ; qtot -43.973021
 1302          o     45    ccc     O4   1302 -0.96050000  16.000000   ; qtot -44.933521
 1303          o     45    ccc     O5   1303 -0.96050000  16.000000   ; qtot -45.894021
 1304         os     45    ccc     O1   1304 -0.11060000  16.000000   ; qtot -46.004621
; residue   46 ccc rtp ccc q -2.0
 1305         c3     46    ccc     C3   1305 -0.04070000  12.010000   ; qtot -46.045321
 1306         h1     46    ccc     H5   1306 0.04610000   1.008000   ; qtot -45.999221
 1307         h1     46    ccc     H6   1307 0.04610000   1.008000   ; qtot -45.953121
 1308         c3     46    ccc     C2   1308 -0.02540000  12.010000   ; qtot -45.978521
 1309         hc     46    ccc     H3   1309 0.00850000   1.008000   ; qtot -45.970021
 1310         hc     46    ccc     H4   1310 0.00850000   1.008000   ; qtot -45.961521
 1311         c3     46    ccc     C1   1311 0.60210000  12.010000   ; qtot -45.359421
 1312         h1     46    ccc     H1   1312 -0.09250000   1.008000   ; qtot -45.451921
 1313         h1     46    ccc     H2   1313 -0.09250000   1.008000   ; qtot -45.544421
 1314         n3     46    ccc     N1   1314 -0.59700000  14.010000   ; qtot -46.141421
 1315         c3     46    ccc     C4   1315 0.32800000  12.010000   ; qtot -45.813421
 1316         h1     46    ccc     H7   1316 -0.07120000   1.008000   ; qtot -45.884621
 1317         h1     46    ccc     H8   1317 -0.07120000   1.008000   ; qtot -45.955821
 1318         c3     46    ccc     C5   1318 -0.39330000  12.010000   ; qtot -46.349121
 1319         hc     46    ccc     H9   1319 0.08130000   1.008000   ; qtot -46.267821
 1320         hc     46    ccc    H10   1320 0.08130000   1.008000   ; qtot -46.186521
 1321          c     46    ccc     C6   1321 1.08970000  12.010000   ; qtot -45.096821
 1322          o     46    ccc     O2   1322 -0.96050000  16.000000   ; qtot -46.057321
 1323          o     46    ccc     O3   1323 -0.96050000  16.000000   ; qtot -47.017821
 1324         c3     46    ccc     C7   1324 0.32800000  12.010000   ; qtot -46.689821
 1325         h1     46    ccc    H11   1325 -0.07120000   1.008000   ; qtot -46.761021
 1326         h1     46    ccc    H12   1326 -0.07120000   1.008000   ; qtot -46.832221
 1327         c3     46    ccc     C8   1327 -0.39330000  12.010000   ; qtot -47.225521
 1328         hc     46    ccc    H13   1328 0.08130000   1.008000   ; qtot -47.144221
 1329         hc     46    ccc    H14   1329 0.08130000   1.008000   ; qtot -47.062921
 1330          c     46    ccc     C9   1330 1.08970000  12.010000   ; qtot -45.973221
 1331          o     46    ccc     O4   1331 -0.96050000  16.000000   ; qtot -46.933721
 1332          o     46    ccc     O5   1332 -0.96050000  16.000000   ; qtot -47.894221
 1333         os     46    ccc     O1   1333 -0.11060000  16.000000   ; qtot -48.004821

[ bonds ]
;    ai     aj funct         c0         c1         c2         c3
      1      2     1   0.14647 272713.120000
      1      5     1   0.14647 272713.120000
      1      8     1   0.14647 272713.120000
      2     14     1   0.15375 251793.120000
      5     17     1   0.15375 251793.120000
      8     11     1   0.15375 251793.120000
     11     23     1   0.15375 251793.120000
     14     26     1   0.15375 251793.120000
     17     20     1   0.15375 251793.120000
     20     57     1   0.14316 258236.480000
     23     86     1   0.14316 258236.480000
     26    115     1   0.14316 258236.480000
     29     30     1   0.14647 272713.120000
     29     33     1   0.14647 272713.120000
     29     36     1   0.14647 272713.120000
     30     42     1   0.15375 251793.120000
     33     45     1   0.15375 251793.120000
     36     39     1   0.15375 251793.120000
     39     48     1   0.15375 251793.120000
     42     54     1   0.15375 251793.120000
     45     51     1   0.15375 251793.120000
     48     57     1   0.14316 258236.480000
     51    144     1   0.14316 258236.480000
     54    173     1   0.14316 258236.480000
     58     59     1   0.14647 272713.120000
     58     62     1   0.14647 272713.120000
     58     65     1   0.14647 272713.120000
     59     71     1   0.15375 251793.120000
     62     74     1   0.15375 251793.120000
     65     68     1   0.15375 251793.120000
     68     77     1   0.15375 251793.120000
     71     83     1   0.15375 251793.120000
     74     80     1   0.15375 251793.120000
     77     86     1   0.14316 258236.480000
     80    202     1   0.14316 258236.480000
     83    231     1   0.14316 258236.480000
     87     88     1   0.14647 272713.120000
     87     91     1   0.14647 272713.120000
     87     94     1   0.14647 272713.120000
     88    100     1   0.15375 251793.120000
     91    103     1   0.15375 251793.120000
     94     97     1   0.15375 251793.120000
     97    106     1   0.15375 251793.120000
    100    112     1   0.15375 251793.120000
    103    109     1   0.15375 251793.120000
    106    115     1   0.14316 258236.480000
    109    260     1   0.14316 258236.480000
    112    289     1   0.14316 258236.480000
    116    117     1   0.14647 272713.120000
    116    120     1   0.14647 272713.120000
    116    123     1   0.14647 272713.120000
    117    129     1   0.15375 251793.120000
    120    132     1   0.15375 251793.120000
    123    126     1   0.15375 251793.120000
    126    135     1   0.15375 251793.120000
    129    141     1   0.15375 251793.120000
    132    138     1   0.15375 251793.120000
    135    144     1   0.14316 258236.480000
    138    318     1   0.14316 258236.480000
    141    347     1   0.14316 258236.480000
    145    146     1   0.14647 272713.120000
    145    149     1   0.14647 272713.120000
    145    152     1   0.14647 272713.120000
    146    158     1   0.15375 251793.120000
    149    161     1   0.15375 251793.120000
    152    155     1   0.15375 251793.120000
    155    164     1   0.15375 251793.120000
    158    170     1   0.15375 251793.120000
    161    167     1   0.15375 251793.120000
    164    173     1   0.14316 258236.480000
    167    376     1   0.14316 258236.480000
    170    405     1   0.14316 258236.480000
    174    175     1   0.14647 272713.120000
    174    178     1   0.14647 272713.120000
    174    181     1   0.14647 272713.120000
    175    187     1   0.15375 251793.120000
    178    190     1   0.15375 251793.120000
    181    184     1   0.15375 251793.120000
    184    193     1   0.15375 251793.120000
    187    199     1   0.15375 251793.120000
    190    196     1   0.15375 251793.120000
    193    202     1   0.14316 258236.480000
    196    434     1   0.14316 258236.480000
    199    463     1   0.14316 258236.480000
    203    204     1   0.14647 272713.120000
    203    207     1   0.14647 272713.120000
    203    210     1   0.14647 272713.120000
    204    216     1   0.15375 251793.120000
    207    219     1   0.15375 251793.120000
    210    213     1   0.15375 251793.120000
    213    222     1   0.15375 251793.120000
    216    228     1   0.15375 251793.120000
    219    225     1   0.15375 251793.120000
    222    231     1   0.14316 258236.480000
    225    492     1   0.14316 258236.480000
    228    521     1   0.14316 258236.480000
    232    233     1   0.14647 272713.120000
    232    236     1   0.14647 272713.120000
    232    239     1   0.14647 272713.120000
    233    245     1   0.15375 251793.120000
    236    248     1   0.15375 251793.120000
    239    242     1   0.15375 251793.120000
    242    251     1   0.15375 251793.120000
    245    257     1   0.15375 251793.120000
    248    254     1   0.15375 251793.120000
    251    260     1   0.14316 258236.480000
    254    550     1   0.14316 258236.480000
    257    579     1   0.14316 258236.480000
    261    262     1   0.14647 272713.120000
    261    265     1   0.14647 272713.120000
    261    268     1   0.14647 272713.120000
    262    274     1   0.15375 251793.120000
    265    277     1   0.15375 251793.120000
    268    271     1   0.15375 251793.120000
    271    280     1   0.15375 251793.120000
    274    286     1   0.15375 251793.120000
    277    283     1   0.15375 251793.120000
    280    289     1   0.14316 258236.480000
    283    608     1   0.14316 258236.480000
    286    637     1   0.14316 258236.480000
    290    291     1   0.14647 272713.120000
    290    294     1   0.14647 272713.120000
    290    297     1   0.14647 272713.120000
    291    303     1   0.15375 251793.120000
    294    306     1   0.15375 251793.120000
    297    300     1   0.15375 251793.120000
    300    309     1   0.15375 251793.120000
    303    315     1   0.15375 251793.120000
    306    312     1   0.15375 251793.120000
    309    318     1   0.14316 258236.480000
    312    666     1   0.14316 258236.480000
    315    695     1   0.14316 258236.480000
    319    320     1   0.14647 272713.120000
    319    323     1   0.14647 272713.120000
    319    326     1   0.14647 272713.120000
    320    332     1   0.15375 251793.120000
    323    335     1   0.15375 251793.120000
    326    329     1   0.15375 251793.120000
    329    338     1   0.15375 251793.120000
    332    344     1   0.15375 251793.120000
    335    341     1   0.15375 251793.120000
    338    347     1   0.14316 258236.480000
    341    724     1   0.14316 258236.480000
    344    753     1   0.14316 258236.480000
    348    349     1   0.14647 272713.120000
    348    352     1   0.14647 272713.120000
    348    355     1   0.14647 272713.120000
    349    361     1   0.15375 251793.120000
    352    364     1   0.15375 251793.120000
    355    358     1   0.15375 251793.120000
    358    367     1   0.15375 251793.120000
    361    373     1   0.15375 251793.120000
    364    370     1   0.15375 251793.120000
    367    376     1   0.14316 258236.480000
    370    782     1   0.14316 258236.480000
    373    811     1   0.14316 258236.480000
    377    378     1   0.14647 272713.120000
    377    381     1   0.14647 272713.120000
    377    384     1   0.14647 272713.120000
    378    390     1   0.15375 251793.120000
    381    393     1   0.15375 251793.120000
    384    387     1   0.15375 251793.120000
    387    396     1   0.15375 251793.120000
    390    402     1   0.15375 251793.120000
    393    399     1   0.15375 251793.120000
    396    405     1   0.14316 258236.480000
    399    840     1   0.14316 258236.480000
    402    869     1   0.14316 258236.480000
    406    407     1   0.14647 272713.120000
    406    410     1   0.14647 272713.120000
    406    413     1   0.14647 272713.120000
    407    419     1   0.15375 251793.120000
    410    422     1   0.15375 251793.120000
    413    416     1   0.15375 251793.120000
    416    425     1   0.15375 251793.120000
    419    431     1   0.15375 251793.120000
    422    428     1   0.15375 251793.120000
    425    434     1   0.14316 258236.480000
    428    898     1   0.14316 258236.480000
    431    927     1   0.14316 258236.480000
    435    436     1   0.14647 272713.120000
    435    439     1   0.14647 272713.120000
    435    442     1   0.14647 272713.120000
    436    448     1   0.15375 251793.120000
    439    451     1   0.15375 251793.120000
    442    445     1   0.15375 251793.120000
    445    454     1   0.15375 251793.120000
    448    460     1   0.15375 251793.120000
    451    457     1   0.15375 251793.120000
    454    463     1   0.14316 258236.480000
    457    956     1   0.14316 258236.480000
    460    985     1   0.14316 258236.480000
    464    465     1   0.14647 272713.120000
    464    468     1   0.14647 272713.120000
    464    471     1   0.14647 272713.120000
    465    477     1   0.15375 251793.120000
    468    480     1   0.15375 251793.120000
    471    474     1   0.15375 251793.120000
    474    483     1   0.15375 251793.120000
    477    489     1   0.15375 251793.120000
    480    486     1   0.15375 251793.120000
    483    492     1   0.14316 258236.480000
    486   1014     1   0.14316 258236.480000
    489   1043     1   0.14316 258236.480000
    493    494     1   0.14647 272713.120000
    493    497     1   0.14647 272713.120000
    493    500     1   0.14647 272713.120000
    494    506     1   0.15375 251793.120000
    497    509     1   0.15375 251793.120000
    500    503     1   0.15375 251793.120000
    503    512     1   0.15375 251793.120000
    506    518     1   0.15375 251793.120000
    509    515     1   0.15375 251793.120000
    512    521     1   0.14316 258236.480000
    515   1072     1   0.14316 258236.480000
    518   1101     1   0.14316 258236.480000
    522    523     1   0.14647 272713.120000
    522    526     1   0.14647 272713.120000
    522    529     1   0.14647 272713.120000
    523    535     1   0.15375 251793.120000
    526    538     1   0.15375 251793.120000
    529    532     1   0.15375 251793.120000
    532    541     1   0.15375 251793.120000
    535    547     1   0.15375 251793.120000
    538    544     1   0.15375 251793.120000
    541    550     1   0.14316 258236.480000
    544   1130     1   0.14316 258236.480000
    547   1159     1   0.14316 258236.480000
    551    552     1   0.14647 272713.120000
    551    555     1   0.14647 272713.120000
    551    558     1   0.14647 272713.120000
    552    564     1   0.15375 251793.120000
    555    567     1   0.15375 251793.120000
    558    561     1   0.15375 251793.120000
    561    570     1   0.15375 251793.120000
    564    576     1   0.15375 251793.120000
    567    573     1   0.15375 251793.120000
    570    579     1   0.14316 258236.480000
    573   1188     1   0.14316 258236.480000
    576   1217     1   0.14316 258236.480000
    580    581     1   0.14647 272713.120000
    580    584     1   0.14647 272713.120000
    580    587     1   0.14647 272713.120000
    581    593     1   0.15375 251793.120000
    584    596     1   0.15375 251793.120000
    587    590     1   0.15375 251793.120000
    590    599     1   0.15375 251793.120000
    593    605     1   0.15375 251793.120000
    596    602     1   0.15375 251793.120000
    599    608     1   0.14316 258236.480000
    602   1246     1   0.14316 258236.480000
    605   1275     1   0.14316 258236.480000
    609    610     1   0.14647 272713.120000
    609    613     1   0.14647 272713.120000
    609    616     1   0.14647 272713.120000
    610    622     1   0.15375 251793.120000
    613    625     1   0.15375 251793.120000
    616    619     1   0.15375 251793.120000
    619    628     1   0.15375 251793.120000
    622    634     1   0.15375 251793.120000
    625    631     1   0.15375 251793.120000
    628    637     1   0.14316 258236.480000
    631   1304     1   0.14316 258236.480000
    634   1333     1   0.14316 258236.480000
    638    641     1   0.15375 251793.120000
    638    666     1   0.14316 258236.480000
    641    644     1   0.15375 251793.120000
    644    647     1   0.14647 272713.120000
    647    648     1   0.14647 272713.120000
    647    657     1   0.14647 272713.120000
    648    651     1   0.15375 251793.120000
    651    654     1   0.15241 261918.400000
    654    655     1   0.12183 533627.360000
    654    656     1   0.12183 533627.360000
    657    660     1   0.15375 251793.120000
    660    663     1   0.15241 261918.400000
    663    664     1   0.12183 533627.360000
    663    665     1   0.12183 533627.360000
    667    670     1   0.15375 251793.120000
    667    695     1   0.14316 258236.480000
    670    673     1   0.15375 251793.120000
    673    676     1   0.14647 272713.120000
    676    677     1   0.14647 272713.120000
    676    686     1   0.14647 272713.120000
    677    680     1   0.15375 251793.120000
    680    683     1   0.15241 261918.400000
    683    684     1   0.12183 533627.360000
    683    685     1   0.12183 533627.360000
    686    689     1   0.15375 251793.120000
    689    692     1   0.15241 261918.400000
    692    693     1   0.12183 533627.360000
    692    694     1   0.12183 533627.360000
    696    699     1   0.15375 251793.120000
    696    724     1   0.14316 258236.480000
    699    702     1   0.15375 251793.120000
    702    705     1   0.14647 272713.120000
    705    706     1   0.14647 272713.120000
    705    715     1   0.14647 272713.120000
    706    709     1   0.15375 251793.120000
    709    712     1   0.15241 261918.400000
    712    713     1   0.12183 533627.360000
    712    714     1   0.12183 533627.360000
    715    718     1   0.15375 251793.120000
    718    721     1   0.15241 261918.400000
    721    722     1   0.12183 533627.360000
    721    723     1   0.12183 533627.360000
    725    728     1   0.15375 251793.120000
    725    753     1   0.14316 258236.480000
    728    731     1   0.15375 251793.120000
    731    734     1   0.14647 272713.120000
    734    735     1   0.14647 272713.120000
    734    744     1   0.14647 272713.120000
    735    738     1   0.15375 251793.120000
    738    741     1   0.15241 261918.400000
    741    742     1   0.12183 533627.360000
    741    743     1   0.12183 533627.360000
    744    747     1   0.15375 251793.120000
    747    750     1   0.15241 261918.400000
    750    751     1   0.12183 533627.360000
    750    752     1   0.12183 533627.360000
    754    757     1   0.15375 251793.120000
    754    782     1   0.14316 258236.480000
    757    760     1   0.15375 251793.120000
    760    763     1   0.14647 272713.120000
    763    764     1   0.14647 272713.120000
    763    773     1   0.14647 272713.120000
    764    767     1   0.15375 251793.120000
    767    770     1   0.15241 261918.400000
    770    771     1   0.12183 533627.360000
    770    772     1   0.12183 533627.360000
    773    776     1   0.15375 251793.120000
    776    779     1   0.15241 261918.400000
    779    780     1   0.12183 533627.360000
    779    781     1   0.12183 533627.360000
    783    786     1   0.15375 251793.120000
    783    811     1   0.14316 258236.480000
    786    789     1   0.15375 251793.120000
    789    792     1   0.14647 272713.120000
    792    793     1   0.14647 272713.120000
    792    802     1   0.14647 272713.120000
    793    796     1   0.15375 251793.120000
    796    799     1   0.15241 261918.400000
    799    800     1   0.12183 533627.360000
    799    801     1   0.12183 533627.360000
    802    805     1   0.15375 251793.120000
    805    808     1   0.15241 261918.400000
    808    809     1   0.12183 533627.360000
    808    810     1   0.12183 533627.360000
    812    815     1   0.15375 251793.120000
    812    840     1   0.14316 258236.480000
    815    818     1   0.15375 251793.120000
    818    821     1   0.14647 272713.120000
    821    822     1   0.14647 272713.120000
    821    831     1   0.14647 272713.120000
    822    825     1   0.15375 251793.120000
    825    828     1   0.15241 261918.400000
    828    829     1   0.12183 533627.360000
    828    830     1   0.12183 533627.360000
    831    834     1   0.15375 251793.120000
    834    837     1   0.15241 261918.400000
    837    838     1   0.12183 533627.360000
    837    839     1   0.12183 533627.360000
    841    844     1   0.15375 251793.120000
    841    869     1   0.14316 258236.480000
    844    847     1   0.15375 251793.120000
    847    850     1   0.14647 272713.120000
    850    851     1   0.14647 272713.120000
    850    860     1   0.14647 272713.120000
    851    854     1   0.15375 251793.120000
    854    857     1   0.15241 261918.400000
    857    858     1   0.12183 533627.360000
    857    859     1   0.12183 533627.360000
    860    863     1   0.15375 251793.120000
    863    866     1   0.15241 261918.400000
    866    867     1   0.12183 533627.360000
    866    868     1   0.12183 533627.360000
    870    873     1   0.15375 251793.120000
    870    898     1   0.14316 258236.480000
    873    876     1   0.15375 251793.120000
    876    879     1   0.14647 272713.120000
    879    880     1   0.14647 272713.120000
    879    889     1   0.14647 272713.120000
    880    883     1   0.15375 251793.120000
    883    886     1   0.15241 261918.400000
    886    887     1   0.12183 533627.360000
    886    888     1   0.12183 533627.360000
    889    892     1   0.15375 251793.120000
    892    895     1   0.15241 261918.400000
    895    896     1   0.12183 533627.360000
    895    897     1   0.12183 533627.360000
    899    902     1   0.15375 251793.120000
    899    927     1   0.14316 258236.480000
    902    905     1   0.15375 251793.120000
    905    908     1   0.14647 272713.120000
    908    909     1   0.14647 272713.120000
    908    918     1   0.14647 272713.120000
    909    912     1   0.15375 251793.120000
    912    915     1   0.15241 261918.400000
    915    916     1   0.12183 533627.360000
    915    917     1   0.12183 533627.360000
    918    921     1   0.15375 251793.120000
    921    924     1   0.15241 261918.400000
    924    925     1   0.12183 533627.360000
    924    926     1   0.12183 533627.360000
    928    931     1   0.15375 251793.120000
    928    956     1   0.14316 258236.480000
    931    934     1   0.15375 251793.120000
    934    937     1   0.14647 272713.120000
    937    938     1   0.14647 272713.120000
    937    947     1   0.14647 272713.120000
    938    941     1   0.15375 251793.120000
    941    944     1   0.15241 261918.400000
    944    945     1   0.12183 533627.360000
    944    946     1   0.12183 533627.360000
    947    950     1   0.15375 251793.120000
    950    953     1   0.15241 261918.400000
    953    954     1   0.12183 533627.360000
    953    955     1   0.12183 533627.360000
    957    960     1   0.15375 251793.120000
    957    985     1   0.14316 258236.480000
    960    963     1   0.15375 251793.120000
    963    966     1   0.14647 272713.120000
    966    967     1   0.14647 272713.120000
    966    976     1   0.14647 272713.120000
    967    970     1   0.15375 251793.120000
    970    973     1   0.15241 261918.400000
    973    974     1   0.12183 533627.360000
    973    975     1   0.12183 533627.360000
    976    979     1   0.15375 251793.120000
    979    982     1   0.15241 261918.400000
    982    983     1   0.12183 533627.360000
    982    984     1   0.12183 533627.360000
    986    989     1   0.15375 251793.120000
    986   1014     1   0.14316 258236.480000
    989    992     1   0.15375 251793.120000
    992    995     1   0.14647 272713.120000
    995    996     1   0.14647 272713.120000
    995   1005     1   0.14647 272713.120000
    996    999     1   0.15375 251793.120000
    999   1002     1   0.15241 261918.400000
   1002   1003     1   0.12183 533627.360000
   1002   1004     1   0.12183 533627.360000
   1005   1008     1   0.15375 251793.120000
   1008   1011     1   0.15241 261918.400000
   1011   1012     1   0.12183 533627.360000
   1011   1013     1   0.12183 533627.360000
   1015   1018     1   0.15375 251793.120000
   1015   1043     1   0.14316 258236.480000
   1018   1021     1   0.15375 251793.120000
   1021   1024     1   0.14647 272713.120000
   1024   1025     1   0.14647 272713.120000
   1024   1034     1   0.14647 272713.120000
   1025   1028     1   0.15375 251793.120000
   1028   1031     1   0.15241 261918.400000
   1031   1032     1   0.12183 533627.360000
   1031   1033     1   0.12183 533627.360000
   1034   1037     1   0.15375 251793.120000
   1037   1040     1   0.15241 261918.400000
   1040   1041     1   0.12183 533627.360000
   1040   1042     1   0.12183 533627.360000
   1044   1047     1   0.15375 251793.120000
   1044   1072     1   0.14316 258236.480000
   1047   1050     1   0.15375 251793.120000
   1050   1053     1   0.14647 272713.120000
   1053   1054     1   0.14647 272713.120000
   1053   1063     1   0.14647 272713.120000
   1054   1057     1   0.15375 251793.120000
   1057   1060     1   0.15241 261918.400000
   1060   1061     1   0.12183 533627.360000
   1060   1062     1   0.12183 533627.360000
   1063   1066     1   0.15375 251793.120000
   1066   1069     1   0.15241 261918.400000
   1069   1070     1   0.12183 533627.360000
   1069   1071     1   0.12183 533627.360000
   1073   1076     1   0.15375 251793.120000
   1073   1101     1   0.14316 258236.480000
   1076   1079     1   0.15375 251793.120000
   1079   1082     1   0.14647 272713.120000
   1082   1083     1   0.14647 272713.120000
   1082   1092     1   0.14647 272713.120000
   1083   1086     1   0.15375 251793.120000
   1086   1089     1   0.15241 261918.400000
   1089   1090     1   0.12183 533627.360000
   1089   1091     1   0.12183 533627.360000
   1092   1095     1   0.15375 251793.120000
   1095   1098     1   0.15241 261918.400000
   1098   1099     1   0.12183 533627.360000
   1098   1100     1   0.12183 533627.360000
   1102   1105     1   0.15375 251793.120000
   1102   1130     1   0.14316 258236.480000
   1105   1108     1   0.15375 251793.120000
   1108   1111     1   0.14647 272713.120000
   1111   1112     1   0.14647 272713.120000
   1111   1121     1   0.14647 272713.120000
   1112   1115     1   0.15375 251793.120000
   1115   1118     1   0.15241 261918.400000
   1118   1119     1   0.12183 533627.360000
   1118   1120     1   0.12183 533627.360000
   1121   1124     1   0.15375 251793.120000
   1124   1127     1   0.15241 261918.400000
   1127   1128     1   0.12183 533627.360000
   1127   1129     1   0.12183 533627.360000
   1131   1134     1   0.15375 251793.120000
   1131   1159     1   0.14316 258236.480000
   1134   1137     1   0.15375 251793.120000
   1137   1140     1   0.14647 272713.120000
   1140   1141     1   0.14647 272713.120000
   1140   1150     1   0.14647 272713.120000
   1141   1144     1   0.15375 251793.120000
   1144   1147     1   0.15241 261918.400000
   1147   1148     1   0.12183 533627.360000
   1147   1149     1   0.12183 533627.360000
   1150   1153     1   0.15375 251793.120000
   1153   1156     1   0.15241 261918.400000
   1156   1157     1   0.12183 533627.360000
   1156   1158     1   0.12183 533627.360000
   1160   1163     1   0.15375 251793.120000
   1160   1188     1   0.14316 258236.480000
   1163   1166     1   0.15375 251793.120000
   1166   1169     1   0.14647 272713.120000
   1169   1170     1   0.14647 272713.120000
   1169   1179     1   0.14647 272713.120000
   1170   1173     1   0.15375 251793.120000
   1173   1176     1   0.15241 261918.400000
   1176   1177     1   0.12183 533627.360000
   1176   1178     1   0.12183 533627.360000
   1179   1182     1   0.15375 251793.120000
   1182   1185     1   0.15241 261918.400000
   1185   1186     1   0.12183 533627.360000
   1185   1187     1   0.12183 533627.360000
   1189   1192     1   0.15375 251793.120000
   1189   1217     1   0.14316 258236.480000
   1192   1195     1   0.15375 251793.120000
   1195   1198     1   0.14647 272713.120000
   1198   1199     1   0.14647 272713.120000
   1198   1208     1   0.14647 272713.120000
   1199   1202     1   0.15375 251793.120000
   1202   1205     1   0.15241 261918.400000
   1205   1206     1   0.12183 533627.360000
   1205   1207     1   0.12183 533627.360000
   1208   1211     1   0.15375 251793.120000
   1211   1214     1   0.15241 261918.400000
   1214   1215     1   0.12183 533627.360000
   1214   1216     1   0.12183 533627.360000
   1218   1221     1   0.15375 251793.120000
   1218   1246     1   0.14316 258236.480000
   1221   1224     1   0.15375 251793.120000
   1224   1227     1   0.14647 272713.120000
   1227   1228     1   0.14647 272713.120000
   1227   1237     1   0.14647 272713.120000
   1228   1231     1   0.15375 251793.120000
   1231   1234     1   0.15241 261918.400000
   1234   1235     1   0.12183 533627.360000
   1234   1236     1   0.12183 533627.360000
   1237   1240     1   0.15375 251793.120000
   1240   1243     1   0.15241 261918.400000
   1243   1244     1   0.12183 533627.360000
   1243   1245     1   0.12183 533627.360000
   1247   1250     1   0.15375 251793.120000
   1247   1275     1   0.14316 258236.480000
   1250   1253     1   0.15375 251793.120000
   1253   1256     1   0.14647 272713.120000
   1256   1257     1   0.14647 272713.120000
   1256   1266     1   0.14647 272713.120000
   1257   1260     1   0.15375 251793.120000
   1260   1263     1   0.15241 261918.400000
   1263   1264     1   0.12183 533627.360000
   1263   1265     1   0.12183 533627.360000
   1266   1269     1   0.15375 251793.120000
   1269   1272     1   0.15241 261918.400000
   1272   1273     1   0.12183 533627.360000
   1272   1274     1   0.12183 533627.360000
   1276   1279     1   0.15375 251793.120000
   1276   1304     1   0.14316 258236.480000
   1279   1282     1   0.15375 251793.120000
   1282   1285     1   0.14647 272713.120000
   1285   1286     1   0.14647 272713.120000
   1285   1295     1   0.14647 272713.120000
   1286   1289     1   0.15375 251793.120000
   1289   1292     1   0.15241 261918.400000
   1292   1293     1   0.12183 533627.360000
   1292   1294     1   0.12183 533627.360000
   1295   1298     1   0.15375 251793.120000
   1298   1301     1   0.15241 261918.400000
   1301   1302     1   0.12183 533627.360000
   1301   1303     1   0.12183 533627.360000
   1305   1308     1   0.15375 251793.120000
   1305   1333     1   0.14316 258236.480000
   1308   1311     1   0.15375 251793.120000
   1311   1314     1   0.14647 272713.120000
   1314   1315     1   0.14647 272713.120000
   1314   1324     1   0.14647 272713.120000
   1315   1318     1   0.15375 251793.120000
   1318   1321     1   0.15241 261918.400000
   1321   1322     1   0.12183 533627.360000
   1321   1323     1   0.12183 533627.360000
   1324   1327     1   0.15375 251793.120000
   1327   1330     1   0.15241 261918.400000
   1330   1331     1   0.12183 533627.360000
   1330   1332     1   0.12183 533627.360000
      2      3     1   0.10969 276646.080000
      2      4     1   0.10969 276646.080000
      5      6     1   0.10969 276646.080000
      5      7     1   0.10969 276646.080000
      8      9     1   0.10969 276646.080000
      8     10     1   0.10969 276646.080000
     11     12     1   0.10969 276646.080000
     11     13     1   0.10969 276646.080000
     14     15     1   0.10969 276646.080000
     14     16     1   0.10969 276646.080000
     17     18     1   0.10969 276646.080000
     17     19     1   0.10969 276646.080000
     20     21     1   0.10969 276646.080000
     20     22     1   0.10969 276646.080000
     23     24     1   0.10969 276646.080000
     23     25     1   0.10969 276646.080000
     26     27     1   0.10969 276646.080000
     26     28     1   0.10969 276646.080000
     30     31     1   0.10969 276646.080000
     30     32     1   0.10969 276646.080000
     33     34     1   0.10969 276646.080000
     33     35     1   0.10969 276646.080000
     36     37     1   0.10969 276646.080000
     36     38     1   0.10969 276646.080000
     39     40     1   0.10969 276646.080000
     39     41     1   0.10969 276646.080000
     42     43     1   0.10969 276646.080000
     42     44     1   0.10969 276646.080000
     45     46     1   0.10969 276646.080000
     45     47     1   0.10969 276646.080000
     48     49     1   0.10969 276646.080000
     48     50     1   0.10969 276646.080000
     51     52     1   0.10969 276646.080000
     51     53     1   0.10969 276646.080000
     54     55     1   0.10969 276646.080000
     54     56     1   0.10969 276646.080000
     59     60     1   0.10969 276646.080000
     59     61     1   0.10969 276646.080000
     62     63     1   0.10969 276646.080000
     62     64     1   0.10969 276646.080000
     65     66     1   0.10969 276646.080000
     65     67     1   0.10969 276646.080000
     68     69     1   0.10969 276646.080000
     68     70     1   0.10969 276646.080000
     71     72     1   0.10969 276646.080000
     71     73     1   0.10969 276646.080000
     74     75     1   0.10969 276646.080000
     74     76     1   0.10969 276646.080000
     77     78     1   0.10969 276646.080000
     77     79     1   0.10969 276646.080000
     80     81     1   0.10969 276646.080000
     80     82     1   0.10969 276646.080000
     83     84     1   0.10969 276646.080000
     83     85     1   0.10969 276646.080000
     88     89     1   0.10969 276646.080000
     88     90     1   0.10969 276646.080000
     91     92     1   0.10969 276646.080000
     91     93     1   0.10969 276646.080000
     94     95     1   0.10969 276646.080000
     94     96     1   0.10969 276646.080000
     97     98     1   0.10969 276646.080000
     97     99     1   0.10969 276646.080000
    100    101     1   0.10969 276646.080000
    100    102     1   0.10969 276646.080000
    103    104     1   0.10969 276646.080000
    103    105     1   0.10969 276646.080000
    106    107     1   0.10969 276646.080000
    106    108     1   0.10969 276646.080000
    109    110     1   0.10969 276646.080000
    109    111     1   0.10969 276646.080000
    112    113     1   0.10969 276646.080000
    112    114     1   0.10969 276646.080000
    117    118     1   0.10969 276646.080000
    117    119     1   0.10969 276646.080000
    120    121     1   0.10969 276646.080000
    120    122     1   0.10969 276646.080000
    123    124     1   0.10969 276646.080000
    123    125     1   0.10969 276646.080000
    126    127     1   0.10969 276646.080000
    126    128     1   0.10969 276646.080000
    129    130     1   0.10969 276646.080000
    129    131     1   0.10969 276646.080000
    132    133     1   0.10969 276646.080000
    132    134     1   0.10969 276646.080000
    135    136     1   0.10969 276646.080000
    135    137     1   0.10969 276646.080000
    138    139     1   0.10969 276646.080000
    138    140     1   0.10969 276646.080000
    141    142     1   0.10969 276646.080000
    141    143     1   0.10969 276646.080000
    146    147     1   0.10969 276646.080000
    146    148     1   0.10969 276646.080000
    149    150     1   0.10969 276646.080000
    149    151     1   0.10969 276646.080000
    152    153     1   0.10969 276646.080000
    152    154     1   0.10969 276646.080000
    155    156     1   0.10969 276646.080000
    155    157     1   0.10969 276646.080000
    158    159     1   0.10969 276646.080000
    158    160     1   0.10969 276646.080000
    161    162     1   0.10969 276646.080000
    161    163     1   0.10969 276646.080000
    164    165     1   0.10969 276646.080000
    164    166     1   0.10969 276646.080000
    167    168     1   0.10969 276646.080000
    167    169     1   0.10969 276646.080000
    170    171     1   0.10969 276646.080000
    170    172     1   0.10969 276646.080000
    175    176     1   0.10969 276646.080000
    175    177     1   0.10969 276646.080000
    178    179     1   0.10969 276646.080000
    178    180     1   0.10969 276646.080000
    181    182     1   0.10969 276646.080000
    181    183     1   0.10969 276646.080000
    184    185     1   0.10969 276646.080000
    184    186     1   0.10969 276646.080000
    187    188     1   0.10969 276646.080000
    187    189     1   0.10969 276646.080000
    190    191     1   0.10969 276646.080000
    190    192     1   0.10969 276646.080000
    193    194     1   0.10969 276646.080000
    193    195     1   0.10969 276646.080000
    196    197     1   0.10969 276646.080000
    196    198     1   0.10969 276646.080000
    199    200     1   0.10969 276646.080000
    199    201     1   0.10969 276646.080000
    204    205     1   0.10969 276646.080000
    204    206     1   0.10969 276646.080000
    207    208     1   0.10969 276646.080000
    207    209     1   0.10969 276646.080000
    210    211     1   0.10969 276646.080000
    210    212     1   0.10969 276646.080000
    213    214     1   0.10969 276646.080000
    213    215     1   0.10969 276646.080000
    216    217     1   0.10969 276646.080000
    216    218     1   0.10969 276646.080000
    219    220     1   0.10969 276646.080000
    219    221     1   0.10969 276646.080000
    222    223     1   0.10969 276646.080000
    222    224     1   0.10969 276646.080000
    225    226     1   0.10969 276646.080000
    225    227     1   0.10969 276646.080000
    228    229     1   0.10969 276646.080000
    228    230     1   0.10969 276646.080000
    233    234     1   0.10969 276646.080000
    233    235     1   0.10969 276646.080000
    236    237     1   0.10969 276646.080000
    236    238     1   0.10969 276646.080000
    239    240     1   0.10969 276646.080000
    239    241     1   0.10969 276646.080000
    242    243     1   0.10969 276646.080000
    242    244     1   0.10969 276646.080000
    245    246     1   0.10969 276646.080000
    245    247     1   0.10969 276646.080000
    248    249     1   0.10969 276646.080000
    248    250     1   0.10969 276646.080000
    251    252     1   0.10969 276646.080000
    251    253     1   0.10969 276646.080000
    254    255     1   0.10969 276646.080000
    254    256     1   0.10969 276646.080000
    257    258     1   0.10969 276646.080000
    257    259     1   0.10969 276646.080000
    262    263     1   0.10969 276646.080000
    262    264     1   0.10969 276646.080000
    265    266     1   0.10969 276646.080000
    265    267     1   0.10969 276646.080000
    268    269     1   0.10969 276646.080000
    268    270     1   0.10969 276646.080000
    271    272     1   0.10969 276646.080000
    271    273     1   0.10969 276646.080000
    274    275     1   0.10969 276646.080000
    274    276     1   0.10969 276646.080000
    277    278     1   0.10969 276646.080000
    277    279     1   0.10969 276646.080000
    280    281     1   0.10969 276646.080000
    280    282     1   0.10969 276646.080000
    283    284     1   0.10969 276646.080000
    283    285     1   0.10969 276646.080000
    286    287     1   0.10969 276646.080000
    286    288     1   0.10969 276646.080000
    291    292     1   0.10969 276646.080000
    291    293     1   0.10969 276646.080000
    294    295     1   0.10969 276646.080000
    294    296     1   0.10969 276646.080000
    297    298     1   0.10969 276646.080000
    297    299     1   0.10969 276646.080000
    300    301     1   0.10969 276646.080000
    300    302     1   0.10969 276646.080000
    303    304     1   0.10969 276646.080000
    303    305     1   0.10969 276646.080000
    306    307     1   0.10969 276646.080000
    306    308     1   0.10969 276646.080000
    309    310     1   0.10969 276646.080000
    309    311     1   0.10969 276646.080000
    312    313     1   0.10969 276646.080000
    312    314     1   0.10969 276646.080000
    315    316     1   0.10969 276646.080000
    315    317     1   0.10969 276646.080000
    320    321     1   0.10969 276646.080000
    320    322     1   0.10969 276646.080000
    323    324     1   0.10969 276646.080000
    323    325     1   0.10969 276646.080000
    326    327     1   0.10969 276646.080000
    326    328     1   0.10969 276646.080000
    329    330     1   0.10969 276646.080000
    329    331     1   0.10969 276646.080000
    332    333     1   0.10969 276646.080000
    332    334     1   0.10969 276646.080000
    335    336     1   0.10969 276646.080000
    335    337     1   0.10969 276646.080000
    338    339     1   0.10969 276646.080000
    338    340     1   0.10969 276646.080000
    341    342     1   0.10969 276646.080000
    341    343     1   0.10969 276646.080000
    344    345     1   0.10969 276646.080000
    344    346     1   0.10969 276646.080000
    349    350     1   0.10969 276646.080000
    349    351     1   0.10969 276646.080000
    352    353     1   0.10969 276646.080000
    352    354     1   0.10969 276646.080000
    355    356     1   0.10969 276646.080000
    355    357     1   0.10969 276646.080000
    358    359     1   0.10969 276646.080000
    358    360     1   0.10969 276646.080000
    361    362     1   0.10969 276646.080000
    361    363     1   0.10969 276646.080000
    364    365     1   0.10969 276646.080000
    364    366     1   0.10969 276646.080000
    367    368     1   0.10969 276646.080000
    367    369     1   0.10969 276646.080000
    370    371     1   0.10969 276646.080000
    370    372     1   0.10969 276646.080000
    373    374     1   0.10969 276646.080000
    373    375     1   0.10969 276646.080000
    378    379     1   0.10969 276646.080000
    378    380     1   0.10969 276646.080000
    381    382     1   0.10969 276646.080000
    381    383     1   0.10969 276646.080000
    384    385     1   0.10969 276646.080000
    384    386     1   0.10969 276646.080000
    387    388     1   0.10969 276646.080000
    387    389     1   0.10969 276646.080000
    390    391     1   0.10969 276646.080000
    390    392     1   0.10969 276646.080000
    393    394     1   0.10969 276646.080000
    393    395     1   0.10969 276646.080000
    396    397     1   0.10969 276646.080000
    396    398     1   0.10969 276646.080000
    399    400     1   0.10969 276646.080000
    399    401     1   0.10969 276646.080000
    402    403     1   0.10969 276646.080000
    402    404     1   0.10969 276646.080000
    407    408     1   0.10969 276646.080000
    407    409     1   0.10969 276646.080000
    410    411     1   0.10969 276646.080000
    410    412     1   0.10969 276646.080000
    413    414     1   0.10969 276646.080000
    413    415     1   0.10969 276646.080000
    416    417     1   0.10969 276646.080000
    416    418     1   0.10969 276646.080000
    419    420     1   0.10969 276646.080000
    419    421     1   0.10969 276646.080000
    422    423     1   0.10969 276646.080000
    422    424     1   0.10969 276646.080000
    425    426     1   0.10969 276646.080000
    425    427     1   0.10969 276646.080000
    428    429     1   0.10969 276646.080000
    428    430     1   0.10969 276646.080000
    431    432     1   0.10969 276646.080000
    431    433     1   0.10969 276646.080000
    436    437     1   0.10969 276646.080000
    436    438     1   0.10969 276646.080000
    439    440     1   0.10969 276646.080000
    439    441     1   0.10969 276646.080000
    442    443     1   0.10969 276646.080000
    442    444     1   0.10969 276646.080000
    445    446     1   0.10969 276646.080000
    445    447     1   0.10969 276646.080000
    448    449     1   0.10969 276646.080000
    448    450     1   0.10969 276646.080000
    451    452     1   0.10969 276646.080000
    451    453     1   0.10969 276646.080000
    454    455     1   0.10969 276646.080000
    454    456     1   0.10969 276646.080000
    457    458     1   0.10969 276646.080000
    457    459     1   0.10969 276646.080000
    460    461     1   0.10969 276646.080000
    460    462     1   0.10969 276646.080000
    465    466     1   0.10969 276646.080000
    465    467     1   0.10969 276646.080000
    468    469     1   0.10969 276646.080000
    468    470     1   0.10969 276646.080000
    471    472     1   0.10969 276646.080000
    471    473     1   0.10969 276646.080000
    474    475     1   0.10969 276646.080000
    474    476     1   0.10969 276646.080000
    477    478     1   0.10969 276646.080000
    477    479     1   0.10969 276646.080000
    480    481     1   0.10969 276646.080000
    480    482     1   0.10969 276646.080000
    483    484     1   0.10969 276646.080000
    483    485     1   0.10969 276646.080000
    486    487     1   0.10969 276646.080000
    486    488     1   0.10969 276646.080000
    489    490     1   0.10969 276646.080000
    489    491     1   0.10969 276646.080000
    494    495     1   0.10969 276646.080000
    494    496     1   0.10969 276646.080000
    497    498     1   0.10969 276646.080000
    497    499     1   0.10969 276646.080000
    500    501     1   0.10969 276646.080000
    500    502     1   0.10969 276646.080000
    503    504     1   0.10969 276646.080000
    503    505     1   0.10969 276646.080000
    506    507     1   0.10969 276646.080000
    506    508     1   0.10969 276646.080000
    509    510     1   0.10969 276646.080000
    509    511     1   0.10969 276646.080000
    512    513     1   0.10969 276646.080000
    512    514     1   0.10969 276646.080000
    515    516     1   0.10969 276646.080000
    515    517     1   0.10969 276646.080000
    518    519     1   0.10969 276646.080000
    518    520     1   0.10969 276646.080000
    523    524     1   0.10969 276646.080000
    523    525     1   0.10969 276646.080000
    526    527     1   0.10969 276646.080000
    526    528     1   0.10969 276646.080000
    529    530     1   0.10969 276646.080000
    529    531     1   0.10969 276646.080000
    532    533     1   0.10969 276646.080000
    532    534     1   0.10969 276646.080000
    535    536     1   0.10969 276646.080000
    535    537     1   0.10969 276646.080000
    538    539     1   0.10969 276646.080000
    538    540     1   0.10969 276646.080000
    541    542     1   0.10969 276646.080000
    541    543     1   0.10969 276646.080000
    544    545     1   0.10969 276646.080000
    544    546     1   0.10969 276646.080000
    547    548     1   0.10969 276646.080000
    547    549     1   0.10969 276646.080000
    552    553     1   0.10969 276646.080000
    552    554     1   0.10969 276646.080000
    555    556     1   0.10969 276646.080000
    555    557     1   0.10969 276646.080000
    558    559     1   0.10969 276646.080000
    558    560     1   0.10969 276646.080000
    561    562     1   0.10969 276646.080000
    561    563     1   0.10969 276646.080000
    564    565     1   0.10969 276646.080000
    564    566     1   0.10969 276646.080000
    567    568     1   0.10969 276646.080000
    567    569     1   0.10969 276646.080000
    570    571     1   0.10969 276646.080000
    570    572     1   0.10969 276646.080000
    573    574     1   0.10969 276646.080000
    573    575     1   0.10969 276646.080000
    576    577     1   0.10969 276646.080000
    576    578     1   0.10969 276646.080000
    581    582     1   0.10969 276646.080000
    581    583     1   0.10969 276646.080000
    584    585     1   0.10969 276646.080000
    584    586     1   0.10969 276646.080000
    587    588     1   0.10969 276646.080000
    587    589     1   0.10969 276646.080000
    590    591     1   0.10969 276646.080000
    590    592     1   0.10969 276646.080000
    593    594     1   0.10969 276646.080000
    593    595     1   0.10969 276646.080000
    596    597     1   0.10969 276646.080000
    596    598     1   0.10969 276646.080000
    599    600     1   0.10969 276646.080000
    599    601     1   0.10969 276646.080000
    602    603     1   0.10969 276646.080000
    602    604     1   0.10969 276646.080000
    605    606     1   0.10969 276646.080000
    605    607     1   0.10969 276646.080000
    610    611     1   0.10969 276646.080000
    610    612     1   0.10969 276646.080000
    613    614     1   0.10969 276646.080000
    613    615     1   0.10969 276646.080000
    616    617     1   0.10969 276646.080000
    616    618     1   0.10969 276646.080000
    619    620     1   0.10969 276646.080000
    619    621     1   0.10969 276646.080000
    622    623     1   0.10969 276646.080000
    622    624     1   0.10969 276646.080000
    625    626     1   0.10969 276646.080000
    625    627     1   0.10969 276646.080000
    628    629     1   0.10969 276646.080000
    628    630     1   0.10969 276646.080000
    631    632     1   0.10969 276646.080000
    631    633     1   0.10969 276646.080000
    634    635     1   0.10969 276646.080000
    634    636     1   0.10969 276646.080000
    638    639     1   0.10969 276646.080000
    638    640     1   0.10969 276646.080000
    641    642     1   0.10969 276646.080000
    641    643     1   0.10969 276646.080000
    644    645     1   0.10969 276646.080000
    644    646     1   0.10969 276646.080000
    648    649     1   0.10969 276646.080000
    648    650     1   0.10969 276646.080000
    651    652     1   0.10969 276646.080000
    651    653     1   0.10969 276646.080000
    657    658     1   0.10969 276646.080000
    657    659     1   0.10969 276646.080000
    660    661     1   0.10969 276646.080000
    660    662     1   0.10969 276646.080000
    667    668     1   0.10969 276646.080000
    667    669     1   0.10969 276646.080000
    670    671     1   0.10969 276646.080000
    670    672     1   0.10969 276646.080000
    673    674     1   0.10969 276646.080000
    673    675     1   0.10969 276646.080000
    677    678     1   0.10969 276646.080000
    677    679     1   0.10969 276646.080000
    680    681     1   0.10969 276646.080000
    680    682     1   0.10969 276646.080000
    686    687     1   0.10969 276646.080000
    686    688     1   0.10969 276646.080000
    689    690     1   0.10969 276646.080000
    689    691     1   0.10969 276646.080000
    696    697     1   0.10969 276646.080000
    696    698     1   0.10969 276646.080000
    699    700     1   0.10969 276646.080000
    699    701     1   0.10969 276646.080000
    702    703     1   0.10969 276646.080000
    702    704     1   0.10969 276646.080000
    706    707     1   0.10969 276646.080000
    706    708     1   0.10969 276646.080000
    709    710     1   0.10969 276646.080000
    709    711     1   0.10969 276646.080000
    715    716     1   0.10969 276646.080000
    715    717     1   0.10969 276646.080000
    718    719     1   0.10969 276646.080000
    718    720     1   0.10969 276646.080000
    725    726     1   0.10969 276646.080000
    725    727     1   0.10969 276646.080000
    728    729     1   0.10969 276646.080000
    728    730     1   0.10969 276646.080000
    731    732     1   0.10969 276646.080000
    731    733     1   0.10969 276646.080000
    735    736     1   0.10969 276646.080000
    735    737     1   0.10969 276646.080000
    738    739     1   0.10969 276646.080000
    738    740     1   0.10969 276646.080000
    744    745     1   0.10969 276646.080000
    744    746     1   0.10969 276646.080000
    747    748     1   0.10969 276646.080000
    747    749     1   0.10969 276646.080000
    754    755     1   0.10969 276646.080000
    754    756     1   0.10969 276646.080000
    757    758     1   0.10969 276646.080000
    757    759     1   0.10969 276646.080000
    760    761     1   0.10969 276646.080000
    760    762     1   0.10969 276646.080000
    764    765     1   0.10969 276646.080000
    764    766     1   0.10969 276646.080000
    767    768     1   0.10969 276646.080000
    767    769     1   0.10969 276646.080000
    773    774     1   0.10969 276646.080000
    773    775     1   0.10969 276646.080000
    776    777     1   0.10969 276646.080000
    776    778     1   0.10969 276646.080000
    783    784     1   0.10969 276646.080000
    783    785     1   0.10969 276646.080000
    786    787     1   0.10969 276646.080000
    786    788     1   0.10969 276646.080000
    789    790     1   0.10969 276646.080000
    789    791     1   0.10969 276646.080000
    793    794     1   0.10969 276646.080000
    793    795     1   0.10969 276646.080000
    796    797     1   0.10969 276646.080000
    796    798     1   0.10969 276646.080000
    802    803     1   0.10969 276646.080000
    802    804     1   0.10969 276646.080000
    805    806     1   0.10969 276646.080000
    805    807     1   0.10969 276646.080000
    812    813     1   0.10969 276646.080000
    812    814     1   0.10969 276646.080000
    815    816     1   0.10969 276646.080000
    815    817     1   0.10969 276646.080000
    818    819     1   0.10969 276646.080000
    818    820     1   0.10969 276646.080000
    822    823     1   0.10969 276646.080000
    822    824     1   0.10969 276646.080000
    825    826     1   0.10969 276646.080000
    825    827     1   0.10969 276646.080000
    831    832     1   0.10969 276646.080000
    831    833     1   0.10969 276646.080000
    834    835     1   0.10969 276646.080000
    834    836     1   0.10969 276646.080000
    841    842     1   0.10969 276646.080000
    841    843     1   0.10969 276646.080000
    844    845     1   0.10969 276646.080000
    844    846     1   0.10969 276646.080000
    847    848     1   0.10969 276646.080000
    847    849     1   0.10969 276646.080000
    851    852     1   0.10969 276646.080000
    851    853     1   0.10969 276646.080000
    854    855     1   0.10969 276646.080000
    854    856     1   0.10969 276646.080000
    860    861     1   0.10969 276646.080000
    860    862     1   0.10969 276646.080000
    863    864     1   0.10969 276646.080000
    863    865     1   0.10969 276646.080000
    870    871     1   0.10969 276646.080000
    870    872     1   0.10969 276646.080000
    873    874     1   0.10969 276646.080000
    873    875     1   0.10969 276646.080000
    876    877     1   0.10969 276646.080000
    876    878     1   0.10969 276646.080000
    880    881     1   0.10969 276646.080000
    880    882     1   0.10969 276646.080000
    883    884     1   0.10969 276646.080000
    883    885     1   0.10969 276646.080000
    889    890     1   0.10969 276646.080000
    889    891     1   0.10969 276646.080000
    892    893     1   0.10969 276646.080000
    892    894     1   0.10969 276646.080000
    899    900     1   0.10969 276646.080000
    899    901     1   0.10969 276646.080000
    902    903     1   0.10969 276646.080000
    902    904     1   0.10969 276646.080000
    905    906     1   0.10969 276646.080000
    905    907     1   0.10969 276646.080000
    909    910     1   0.10969 276646.080000
    909    911     1   0.10969 276646.080000
    912    913     1   0.10969 276646.080000
    912    914     1   0.10969 276646.080000
    918    919     1   0.10969 276646.080000
    918    920     1   0.10969 276646.080000
    921    922     1   0.10969 276646.080000
    921    923     1   0.10969 276646.080000
    928    929     1   0.10969 276646.080000
    928    930     1   0.10969 276646.080000
    931    932     1   0.10969 276646.080000
    931    933     1   0.10969 276646.080000
    934    935     1   0.10969 276646.080000
    934    936     1   0.10969 276646.080000
    938    939     1   0.10969 276646.080000
    938    940     1   0.10969 276646.080000
    941    942     1   0.10969 276646.080000
    941    943     1   0.10969 276646.080000
    947    948     1   0.10969 276646.080000
    947    949     1   0.10969 276646.080000
    950    951     1   0.10969 276646.080000
    950    952     1   0.10969 276646.080000
    957    958     1   0.10969 276646.080000
    957    959     1   0.10969 276646.080000
    960    961     1   0.10969 276646.080000
    960    962     1   0.10969 276646.080000
    963    964     1   0.10969 276646.080000
    963    965     1   0.10969 276646.080000
    967    968     1   0.10969 276646.080000
    967    969     1   0.10969 276646.080000
    970    971     1   0.10969 276646.080000
    970    972     1   0.10969 276646.080000
    976    977     1   0.10969 276646.080000
    976    978     1   0.10969 276646.080000
    979    980     1   0.10969 276646.080000
    979    981     1   0.10969 276646.080000
    986    987     1   0.10969 276646.080000
    986    988     1   0.10969 276646.080000
    989    990     1   0.10969 276646.080000
    989    991     1   0.10969 276646.080000
    992    993     1   0.10969 276646.080000
    992    994     1   0.10969 276646.080000
    996    997     1   0.10969 276646.080000
    996    998     1   0.10969 276646.080000
    999   1000     1   0.10969 276646.080000
    999   1001     1   0.10969 276646.080000
   1005   1006     1   0.10969 276646.080000
   1005   1007     1   0.10969 276646.080000
   1008   1009     1   0.10969 276646.080000
   1008   1010     1   0.10969 276646.080000
   1015   1016     1   0.10969 276646.080000
   1015   1017     1   0.10969 276646.080000
   1018   1019     1   0.10969 276646.080000
   1018   1020     1   0.10969 276646.080000
   1021   1022     1   0.10969 276646.080000
   1021   1023     1   0.10969 276646.080000
   1025   1026     1   0.10969 276646.080000
   1025   1027     1   0.10969 276646.080000
   1028   1029     1   0.10969 276646.080000
   1028   1030     1   0.10969 276646.080000
   1034   1035     1   0.10969 276646.080000
   1034   1036     1   0.10969 276646.080000
   1037   1038     1   0.10969 276646.080000
   1037   1039     1   0.10969 276646.080000
   1044   1045     1   0.10969 276646.080000
   1044   1046     1   0.10969 276646.080000
   1047   1048     1   0.10969 276646.080000
   1047   1049     1   0.10969 276646.080000
   1050   1051     1   0.10969 276646.080000
   1050   1052     1   0.10969 276646.080000
   1054   1055     1   0.10969 276646.080000
   1054   1056     1   0.10969 276646.080000
   1057   1058     1   0.10969 276646.080000
   1057   1059     1   0.10969 276646.080000
   1063   1064     1   0.10969 276646.080000
   1063   1065     1   0.10969 276646.080000
   1066   1067     1   0.10969 276646.080000
   1066   1068     1   0.10969 276646.080000
   1073   1074     1   0.10969 276646.080000
   1073   1075     1   0.10969 276646.080000
   1076   1077     1   0.10969 276646.080000
   1076   1078     1   0.10969 276646.080000
   1079   1080     1   0.10969 276646.080000
   1079   1081     1   0.10969 276646.080000
   1083   1084     1   0.10969 276646.080000
   1083   1085     1   0.10969 276646.080000
   1086   1087     1   0.10969 276646.080000
   1086   1088     1   0.10969 276646.080000
   1092   1093     1   0.10969 276646.080000
   1092   1094     1   0.10969 276646.080000
   1095   1096     1   0.10969 276646.080000
   1095   1097     1   0.10969 276646.080000
   1102   1103     1   0.10969 276646.080000
   1102   1104     1   0.10969 276646.080000
   1105   1106     1   0.10969 276646.080000
   1105   1107     1   0.10969 276646.080000
   1108   1109     1   0.10969 276646.080000
   1108   1110     1   0.10969 276646.080000
   1112   1113     1   0.10969 276646.080000
   1112   1114     1   0.10969 276646.080000
   1115   1116     1   0.10969 276646.080000
   1115   1117     1   0.10969 276646.080000
   1121   1122     1   0.10969 276646.080000
   1121   1123     1   0.10969 276646.080000
   1124   1125     1   0.10969 276646.080000
   1124   1126     1   0.10969 276646.080000
   1131   1132     1   0.10969 276646.080000
   1131   1133     1   0.10969 276646.080000
   1134   1135     1   0.10969 276646.080000
   1134   1136     1   0.10969 276646.080000
   1137   1138     1   0.10969 276646.080000
   1137   1139     1   0.10969 276646.080000
   1141   1142     1   0.10969 276646.080000
   1141   1143     1   0.10969 276646.080000
   1144   1145     1   0.10969 276646.080000
   1144   1146     1   0.10969 276646.080000
   1150   1151     1   0.10969 276646.080000
   1150   1152     1   0.10969 276646.080000
   1153   1154     1   0.10969 276646.080000
   1153   1155     1   0.10969 276646.080000
   1160   1161     1   0.10969 276646.080000
   1160   1162     1   0.10969 276646.080000
   1163   1164     1   0.10969 276646.080000
   1163   1165     1   0.10969 276646.080000
   1166   1167     1   0.10969 276646.080000
   1166   1168     1   0.10969 276646.080000
   1170   1171     1   0.10969 276646.080000
   1170   1172     1   0.10969 276646.080000
   1173   1174     1   0.10969 276646.080000
   1173   1175     1   0.10969 276646.080000
   1179   1180     1   0.10969 276646.080000
   1179   1181     1   0.10969 276646.080000
   1182   1183     1   0.10969 276646.080000
   1182   1184     1   0.10969 276646.080000
   1189   1190     1   0.10969 276646.080000
   1189   1191     1   0.10969 276646.080000
   1192   1193     1   0.10969 276646.080000
   1192   1194     1   0.10969 276646.080000
   1195   1196     1   0.10969 276646.080000
   1195   1197     1   0.10969 276646.080000
   1199   1200     1   0.10969 276646.080000
   1199   1201     1   0.10969 276646.080000
   1202   1203     1   0.10969 276646.080000
   1202   1204     1   0.10969 276646.080000
   1208   1209     1   0.10969 276646.080000
   1208   1210     1   0.10969 276646.080000
   1211   1212     1   0.10969 276646.080000
   1211   1213     1   0.10969 276646.080000
   1218   1219     1   0.10969 276646.080000
   1218   1220     1   0.10969 276646.080000
   1221   1222     1   0.10969 276646.080000
   1221   1223     1   0.10969 276646.080000
   1224   1225     1   0.10969 276646.080000
   1224   1226     1   0.10969 276646.080000
   1228   1229     1   0.10969 276646.080000
   1228   1230     1   0.10969 276646.080000
   1231   1232     1   0.10969 276646.080000
   1231   1233     1   0.10969 276646.080000
   1237   1238     1   0.10969 276646.080000
   1237   1239     1   0.10969 276646.080000
   1240   1241     1   0.10969 276646.080000
   1240   1242     1   0.10969 276646.080000
   1247   1248     1   0.10969 276646.080000
   1247   1249     1   0.10969 276646.080000
   1250   1251     1   0.10969 276646.080000
   1250   1252     1   0.10969 276646.080000
   1253   1254     1   0.10969 276646.080000
   1253   1255     1   0.10969 276646.080000
   1257   1258     1   0.10969 276646.080000
   1257   1259     1   0.10969 276646.080000
   1260   1261     1   0.10969 276646.080000
   1260   1262     1   0.10969 276646.080000
   1266   1267     1   0.10969 276646.080000
   1266   1268     1   0.10969 276646.080000
   1269   1270     1   0.10969 276646.080000
   1269   1271     1   0.10969 276646.080000
   1276   1277     1   0.10969 276646.080000
   1276   1278     1   0.10969 276646.080000
   1279   1280     1   0.10969 276646.080000
   1279   1281     1   0.10969 276646.080000
   1282   1283     1   0.10969 276646.080000
   1282   1284     1   0.10969 276646.080000
   1286   1287     1   0.10969 276646.080000
   1286   1288     1   0.10969 276646.080000
   1289   1290     1   0.10969 276646.080000
   1289   1291     1   0.10969 276646.080000
   1295   1296     1   0.10969 276646.080000
   1295   1297     1   0.10969 276646.080000
   1298   1299     1   0.10969 276646.080000
   1298   1300     1   0.10969 276646.080000
   1305   1306     1   0.10969 276646.080000
   1305   1307     1   0.10969 276646.080000
   1308   1309     1   0.10969 276646.080000
   1308   1310     1   0.10969 276646.080000
   1311   1312     1   0.10969 276646.080000
   1311   1313     1   0.10969 276646.080000
   1315   1316     1   0.10969 276646.080000
   1315   1317     1   0.10969 276646.080000
   1318   1319     1   0.10969 276646.080000
   1318   1320     1   0.10969 276646.080000
   1324   1325     1   0.10969 276646.080000
   1324   1326     1   0.10969 276646.080000
   1327   1328     1   0.10969 276646.080000
   1327   1329     1   0.10969 276646.080000

[ pairs ]
;    ai     aj funct         c0         c1         c2         c3
      1     26     1
      1     20     1
      1     23     1
      2     17     1
      2     11     1
      2    115     1
      5     14     1
      5     11     1
      5     57     1
      8     14     1
      8     17     1
      8     86     1
     11     77     1
     14    106     1
     17     48     1
     20     39     1
     23     68     1
     26     97     1
     29     54     1
     29     51     1
     29     48     1
     30     45     1
     30     39     1
     30    173     1
     33     42     1
     33     39     1
     33    144     1
     36     42     1
     36     45     1
     36     57     1
     42    164     1
     45    135     1
     51    126     1
     54    155     1
     58     83     1
     58     80     1
     58     77     1
     59     74     1
     59     68     1
     59    231     1
     62     71     1
     62     68     1
     62    202     1
     65     71     1
     65     74     1
     65     86     1
     71    222     1
     74    193     1
     80    184     1
     83    213     1
     87    112     1
     87    109     1
     87    106     1
     88    103     1
     88     97     1
     88    289     1
     91    100     1
     91     97     1
     91    260     1
     94    100     1
     94    103     1
     94    115     1
    100    280     1
    103    251     1
    109    242     1
    112    271     1
    116    141     1
    116    138     1
    116    135     1
    117    132     1
    117    126     1
    117    347     1
    120    129     1
    120    126     1
    120    318     1
    123    129     1
    123    132     1
    123    144     1
    129    338     1
    132    309     1
    138    300     1
    141    329     1
    145    170     1
    145    167     1
    145    164     1
    146    161     1
    146    155     1
    146    405     1
    149    158     1
    149    155     1
    149    376     1
    152    158     1
    152    161     1
    152    173     1
    158    396     1
    161    367     1
    167    358     1
    170    387     1
    174    199     1
    174    196     1
    174    193     1
    175    190     1
    175    184     1
    175    463     1
    178    187     1
    178    184     1
    178    434     1
    181    187     1
    181    190     1
    181    202     1
    187    454     1
    190    425     1
    196    416     1
    199    445     1
    203    228     1
    203    225     1
    203    222     1
    204    219     1
    204    213     1
    204    521     1
    207    216     1
    207    213     1
    207    492     1
    210    216     1
    210    219     1
    210    231     1
    216    512     1
    219    483     1
    225    474     1
    228    503     1
    232    257     1
    232    254     1
    232    251     1
    233    248     1
    233    242     1
    233    579     1
    236    245     1
    236    242     1
    236    550     1
    239    245     1
    239    248     1
    239    260     1
    245    570     1
    248    541     1
    254    532     1
    257    561     1
    261    286     1
    261    283     1
    261    280     1
    262    277     1
    262    271     1
    262    637     1
    265    274     1
    265    271     1
    265    608     1
    268    274     1
    268    277     1
    268    289     1
    274    628     1
    277    599     1
    283    590     1
    286    619     1
    290    315     1
    290    312     1
    290    309     1
    291    306     1
    291    300     1
    291    695     1
    294    303     1
    294    300     1
    294    666     1
    297    303     1
    297    306     1
    297    318     1
    303    667     1
    306    638     1
    312    641     1
    315    670     1
    319    344     1
    319    341     1
    319    338     1
    320    335     1
    320    329     1
    320    753     1
    323    332     1
    323    329     1
    323    724     1
    326    332     1
    326    335     1
    326    347     1
    332    725     1
    335    696     1
    341    699     1
    344    728     1
    348    373     1
    348    370     1
    348    367     1
    349    364     1
    349    358     1
    349    811     1
    352    361     1
    352    358     1
    352    782     1
    355    361     1
    355    364     1
    355    376     1
    361    783     1
    364    754     1
    370    757     1
    373    786     1
    377    402     1
    377    399     1
    377    396     1
    378    393     1
    378    387     1
    378    869     1
    381    390     1
    381    387     1
    381    840     1
    384    390     1
    384    393     1
    384    405     1
    390    841     1
    393    812     1
    399    815     1
    402    844     1
    406    431     1
    406    428     1
    406    425     1
    407    422     1
    407    416     1
    407    927     1
    410    419     1
    410    416     1
    410    898     1
    413    419     1
    413    422     1
    413    434     1
    419    899     1
    422    870     1
    428    873     1
    431    902     1
    435    460     1
    435    457     1
    435    454     1
    436    451     1
    436    445     1
    436    985     1
    439    448     1
    439    445     1
    439    956     1
    442    448     1
    442    451     1
    442    463     1
    448    957     1
    451    928     1
    457    931     1
    460    960     1
    464    489     1
    464    486     1
    464    483     1
    465    480     1
    465    474     1
    465   1043     1
    468    477     1
    468    474     1
    468   1014     1
    471    477     1
    471    480     1
    471    492     1
    477   1015     1
    480    986     1
    486    989     1
    489   1018     1
    493    518     1
    493    515     1
    493    512     1
    494    509     1
    494    503     1
    494   1101     1
    497    506     1
    497    503     1
    497   1072     1
    500    506     1
    500    509     1
    500    521     1
    506   1073     1
    509   1044     1
    515   1047     1
    518   1076     1
    522    547     1
    522    544     1
    522    541     1
    523    538     1
    523    532     1
    523   1159     1
    526    535     1
    526    532     1
    526   1130     1
    529    535     1
    529    538     1
    529    550     1
    535   1131     1
    538   1102     1
    544   1105     1
    547   1134     1
    551    576     1
    551    573     1
    551    570     1
    552    567     1
    552    561     1
    552   1217     1
    555    564     1
    555    561     1
    555   1188     1
    558    564     1
    558    567     1
    558    579     1
    564   1189     1
    567   1160     1
    573   1163     1
    576   1192     1
    580    605     1
    580    602     1
    580    599     1
    581    596     1
    581    590     1
    581   1275     1
    584    593     1
    584    590     1
    584   1246     1
    587    593     1
    587    596     1
    587    608     1
    593   1247     1
    596   1218     1
    602   1221     1
    605   1250     1
    609    634     1
    609    631     1
    609    628     1
    610    625     1
    610    619     1
    610   1333     1
    613    622     1
    613    619     1
    613   1304     1
    616    622     1
    616    625     1
    616    637     1
    622   1305     1
    625   1276     1
    631   1279     1
    634   1308     1
    638    647     1
    641    648     1
    641    657     1
    644    666     1
    644    651     1
    644    660     1
    647    654     1
    647    663     1
    648    660     1
    648    655     1
    648    656     1
    651    657     1
    657    664     1
    657    665     1
    667    676     1
    670    677     1
    670    686     1
    673    680     1
    673    689     1
    673    695     1
    676    683     1
    676    692     1
    677    684     1
    677    685     1
    677    689     1
    680    686     1
    686    693     1
    686    694     1
    696    705     1
    699    706     1
    699    715     1
    702    724     1
    702    709     1
    702    718     1
    705    712     1
    705    721     1
    706    718     1
    706    713     1
    706    714     1
    709    715     1
    715    722     1
    715    723     1
    725    734     1
    728    735     1
    728    744     1
    731    738     1
    731    747     1
    731    753     1
    734    741     1
    734    750     1
    735    742     1
    735    743     1
    735    747     1
    738    744     1
    744    751     1
    744    752     1
    754    763     1
    757    764     1
    757    773     1
    760    782     1
    760    767     1
    760    776     1
    763    770     1
    763    779     1
    764    776     1
    764    771     1
    764    772     1
    767    773     1
    773    780     1
    773    781     1
    783    792     1
    786    793     1
    786    802     1
    789    796     1
    789    805     1
    789    811     1
    792    799     1
    792    808     1
    793    800     1
    793    801     1
    793    805     1
    796    802     1
    802    809     1
    802    810     1
    812    821     1
    815    822     1
    815    831     1
    818    840     1
    818    825     1
    818    834     1
    821    828     1
    821    837     1
    822    834     1
    822    829     1
    822    830     1
    825    831     1
    831    838     1
    831    839     1
    841    850     1
    844    851     1
    844    860     1
    847    854     1
    847    863     1
    847    869     1
    850    857     1
    850    866     1
    851    858     1
    851    859     1
    851    863     1
    854    860     1
    860    867     1
    860    868     1
    870    879     1
    873    880     1
    873    889     1
    876    898     1
    876    883     1
    876    892     1
    879    886     1
    879    895     1
    880    892     1
    880    887     1
    880    888     1
    883    889     1
    889    896     1
    889    897     1
    899    908     1
    902    909     1
    902    918     1
    905    912     1
    905    921     1
    905    927     1
    908    915     1
    908    924     1
    909    916     1
    909    917     1
    909    921     1
    912    918     1
    918    925     1
    918    926     1
    928    937     1
    931    938     1
    931    947     1
    934    956     1
    934    941     1
    934    950     1
    937    944     1
    937    953     1
    938    950     1
    938    945     1
    938    946     1
    941    947     1
    947    954     1
    947    955     1
    957    966     1
    960    967     1
    960    976     1
    963    970     1
    963    979     1
    963    985     1
    966    973     1
    966    982     1
    967    974     1
    967    975     1
    967    979     1
    970    976     1
    976    983     1
    976    984     1
    986    995     1
    989    996     1
    989   1005     1
    992   1014     1
    992    999     1
    992   1008     1
    995   1002     1
    995   1011     1
    996   1008     1
    996   1003     1
    996   1004     1
    999   1005     1
   1005   1012     1
   1005   1013     1
   1015   1024     1
   1018   1025     1
   1018   1034     1
   1021   1028     1
   1021   1037     1
   1021   1043     1
   1024   1031     1
   1024   1040     1
   1025   1032     1
   1025   1033     1
   1025   1037     1
   1028   1034     1
   1034   1041     1
   1034   1042     1
   1044   1053     1
   1047   1054     1
   1047   1063     1
   1050   1072     1
   1050   1057     1
   1050   1066     1
   1053   1060     1
   1053   1069     1
   1054   1066     1
   1054   1061     1
   1054   1062     1
   1057   1063     1
   1063   1070     1
   1063   1071     1
   1073   1082     1
   1076   1083     1
   1076   1092     1
   1079   1086     1
   1079   1095     1
   1079   1101     1
   1082   1089     1
   1082   1098     1
   1083   1090     1
   1083   1091     1
   1083   1095     1
   1086   1092     1
   1092   1099     1
   1092   1100     1
   1102   1111     1
   1105   1112     1
   1105   1121     1
   1108   1130     1
   1108   1115     1
   1108   1124     1
   1111   1118     1
   1111   1127     1
   1112   1124     1
   1112   1119     1
   1112   1120     1
   1115   1121     1
   1121   1128     1
   1121   1129     1
   1131   1140     1
   1134   1141     1
   1134   1150     1
   1137   1144     1
   1137   1153     1
   1137   1159     1
   1140   1147     1
   1140   1156     1
   1141   1148     1
   1141   1149     1
   1141   1153     1
   1144   1150     1
   1150   1157     1
   1150   1158     1
   1160   1169     1
   1163   1170     1
   1163   1179     1
   1166   1188     1
   1166   1173     1
   1166   1182     1
   1169   1176     1
   1169   1185     1
   1170   1182     1
   1170   1177     1
   1170   1178     1
   1173   1179     1
   1179   1186     1
   1179   1187     1
   1189   1198     1
   1192   1199     1
   1192   1208     1
   1195   1202     1
   1195   1211     1
   1195   1217     1
   1198   1205     1
   1198   1214     1
   1199   1206     1
   1199   1207     1
   1199   1211     1
   1202   1208     1
   1208   1215     1
   1208   1216     1
   1218   1227     1
   1221   1228     1
   1221   1237     1
   1224   1246     1
   1224   1231     1
   1224   1240     1
   1227   1234     1
   1227   1243     1
   1228   1240     1
   1228   1235     1
   1228   1236     1
   1231   1237     1
   1237   1244     1
   1237   1245     1
   1247   1256     1
   1250   1257     1
   1250   1266     1
   1253   1260     1
   1253   1269     1
   1253   1275     1
   1256   1263     1
   1256   1272     1
   1257   1264     1
   1257   1265     1
   1257   1269     1
   1260   1266     1
   1266   1273     1
   1266   1274     1
   1276   1285     1
   1279   1286     1
   1279   1295     1
   1282   1304     1
   1282   1289     1
   1282   1298     1
   1285   1292     1
   1285   1301     1
   1286   1298     1
   1286   1293     1
   1286   1294     1
   1289   1295     1
   1295   1302     1
   1295   1303     1
   1305   1314     1
   1308   1315     1
   1308   1324     1
   1311   1318     1
   1311   1327     1
   1311   1333     1
   1314   1321     1
   1314   1330     1
   1315   1322     1
   1315   1323     1
   1315   1327     1
   1318   1324     1
   1324   1331     1
   1324   1332     1
      1     15     1
      1     16     1
      1     18     1
      1     19     1
      1     12     1
      1     13     1
      2      6     1
      2      7     1
      2      9     1
      2     10     1
      2     27     1
      2     28     1
      5      3     1
      8      3     1
      3     26     1
      3     15     1
      3     16     1
      5      4     1
      8      4     1
      4     26     1
      4     15     1
      4     16     1
      5      9     1
      5     10     1
      5     21     1
      5     22     1
      8      6     1
      6     20     1
      6     18     1
      6     19     1
      8      7     1
      7     20     1
      7     18     1
      7     19     1
      8     24     1
      8     25     1
      9     23     1
      9     12     1
      9     13     1
     10     23     1
     10     12     1
     10     13     1
     12     86     1
     12     24     1
     12     25     1
     13     86     1
     13     24     1
     13     25     1
     15    115     1
     15     27     1
     15     28     1
     16    115     1
     16     27     1
     16     28     1
     18     57     1
     18     21     1
     18     22     1
     19     57     1
     19     21     1
     19     22     1
     20     49     1
     20     50     1
     21     48     1
     22     48     1
     23     78     1
     23     79     1
     24     77     1
     25     77     1
     26    107     1
     26    108     1
     27    106     1
     28    106     1
     29     43     1
     29     44     1
     29     46     1
     29     47     1
     29     40     1
     29     41     1
     30     34     1
     30     35     1
     30     37     1
     30     38     1
     30     55     1
     30     56     1
     31     33     1
     31     36     1
     31     54     1
     31     43     1
     31     44     1
     32     33     1
     32     36     1
     32     54     1
     32     43     1
     32     44     1
     33     37     1
     33     38     1
     33     52     1
     33     53     1
     34     36     1
     34     51     1
     34     46     1
     34     47     1
     35     36     1
     35     51     1
     35     46     1
     35     47     1
     36     49     1
     36     50     1
     37     48     1
     37     40     1
     37     41     1
     38     48     1
     38     40     1
     38     41     1
     40     57     1
     40     49     1
     40     50     1
     41     57     1
     41     49     1
     41     50     1
     43    173     1
     43     55     1
     43     56     1
     44    173     1
     44     55     1
     44     56     1
     46    144     1
     46     52     1
     46     53     1
     47    144     1
     47     52     1
     47     53     1
     51    136     1
     51    137     1
     52    135     1
     53    135     1
     54    165     1
     54    166     1
     55    164     1
     56    164     1
     58     72     1
     58     73     1
     58     75     1
     58     76     1
     58     69     1
     58     70     1
     59     63     1
     59     64     1
     59     66     1
     59     67     1
     59     84     1
     59     85     1
     60     62     1
     60     65     1
     60     83     1
     60     72     1
     60     73     1
     61     62     1
     61     65     1
     61     83     1
     61     72     1
     61     73     1
     62     66     1
     62     67     1
     62     81     1
     62     82     1
     63     65     1
     63     80     1
     63     75     1
     63     76     1
     64     65     1
     64     80     1
     64     75     1
     64     76     1
     65     78     1
     65     79     1
     66     77     1
     66     69     1
     66     70     1
     67     77     1
     67     69     1
     67     70     1
     69     86     1
     69     78     1
     69     79     1
     70     86     1
     70     78     1
     70     79     1
     72    231     1
     72     84     1
     72     85     1
     73    231     1
     73     84     1
     73     85     1
     75    202     1
     75     81     1
     75     82     1
     76    202     1
     76     81     1
     76     82     1
     80    194     1
     80    195     1
     81    193     1
     82    193     1
     83    223     1
     83    224     1
     84    222     1
     85    222     1
     87    101     1
     87    102     1
     87    104     1
     87    105     1
     87     98     1
     87     99     1
     88     92     1
     88     93     1
     88     95     1
     88     96     1
     88    113     1
     88    114     1
     89     91     1
     89     94     1
     89    112     1
     89    101     1
     89    102     1
     90     91     1
     90     94     1
     90    112     1
     90    101     1
     90    102     1
     91     95     1
     91     96     1
     91    110     1
     91    111     1
     92     94     1
     92    109     1
     92    104     1
     92    105     1
     93     94     1
     93    109     1
     93    104     1
     93    105     1
     94    107     1
     94    108     1
     95    106     1
     95     98     1
     95     99     1
     96    106     1
     96     98     1
     96     99     1
     98    115     1
     98    107     1
     98    108     1
     99    115     1
     99    107     1
     99    108     1
    101    289     1
    101    113     1
    101    114     1
    102    289     1
    102    113     1
    102    114     1
    104    260     1
    104    110     1
    104    111     1
    105    260     1
    105    110     1
    105    111     1
    109    252     1
    109    253     1
    110    251     1
    111    251     1
    112    281     1
    112    282     1
    113    280     1
    114    280     1
    116    130     1
    116    131     1
    116    133     1
    116    134     1
    116    127     1
    116    128     1
    117    121     1
    117    122     1
    117    124     1
    117    125     1
    117    142     1
    117    143     1
    118    120     1
    118    123     1
    118    141     1
    118    130     1
    118    131     1
    119    120     1
    119    123     1
    119    141     1
    119    130     1
    119    131     1
    120    124     1
    120    125     1
    120    139     1
    120    140     1
    121    123     1
    121    138     1
    121    133     1
    121    134     1
    122    123     1
    122    138     1
    122    133     1
    122    134     1
    123    136     1
    123    137     1
    124    135     1
    124    127     1
    124    128     1
    125    135     1
    125    127     1
    125    128     1
    127    144     1
    127    136     1
    127    137     1
    128    144     1
    128    136     1
    128    137     1
    130    347     1
    130    142     1
    130    143     1
    131    347     1
    131    142     1
    131    143     1
    133    318     1
    133    139     1
    133    140     1
    134    318     1
    134    139     1
    134    140     1
    138    310     1
    138    311     1
    139    309     1
    140    309     1
    141    339     1
    141    340     1
    142    338     1
    143    338     1
    145    159     1
    145    160     1
    145    162     1
    145    163     1
    145    156     1
    145    157     1
    146    150     1
    146    151     1
    146    153     1
    146    154     1
    146    171     1
    146    172     1
    147    149     1
    147    152     1
    147    170     1
    147    159     1
    147    160     1
    148    149     1
    148    152     1
    148    170     1
    148    159     1
    148    160     1
    149    153     1
    149    154     1
    149    168     1
    149    169     1
    150    152     1
    150    167     1
    150    162     1
    150    163     1
    151    152     1
    151    167     1
    151    162     1
    151    163     1
    152    165     1
    152    166     1
    153    164     1
    153    156     1
    153    157     1
    154    164     1
    154    156     1
    154    157     1
    156    173     1
    156    165     1
    156    166     1
    157    173     1
    157    165     1
    157    166     1
    159    405     1
    159    171     1
    159    172     1
    160    405     1
    160    171     1
    160    172     1
    162    376     1
    162    168     1
    162    169     1
    163    376     1
    163    168     1
    163    169     1
    167    368     1
    167    369     1
    168    367     1
    169    367     1
    170    397     1
    170    398     1
    171    396     1
    172    396     1
    174    188     1
    174    189     1
    174    191     1
    174    192     1
    174    185     1
    174    186     1
    175    179     1
    175    180     1
    175    182     1
    175    183     1
    175    200     1
    175    201     1
    176    178     1
    176    181     1
    176    199     1
    176    188     1
    176    189     1
    177    178     1
    177    181     1
    177    199     1
    177    188     1
    177    189     1
    178    182     1
    178    183     1
    178    197     1
    178    198     1
    179    181     1
    179    196     1
    179    191     1
    179    192     1
    180    181     1
    180    196     1
    180    191     1
    180    192     1
    181    194     1
    181    195     1
    182    193     1
    182    185     1
    182    186     1
    183    193     1
    183    185     1
    183    186     1
    185    202     1
    185    194     1
    185    195     1
    186    202     1
    186    194     1
    186    195     1
    188    463     1
    188    200     1
    188    201     1
    189    463     1
    189    200     1
    189    201     1
    191    434     1
    191    197     1
    191    198     1
    192    434     1
    192    197     1
    192    198     1
    196    426     1
    196    427     1
    197    425     1
    198    425     1
    199    455     1
    199    456     1
    200    454     1
    201    454     1
    203    217     1
    203    218     1
    203    220     1
    203    221     1
    203    214     1
    203    215     1
    204    208     1
    204    209     1
    204    211     1
    204    212     1
    204    229     1
    204    230     1
    205    207     1
    205    210     1
    205    228     1
    205    217     1
    205    218     1
    206    207     1
    206    210     1
    206    228     1
    206    217     1
    206    218     1
    207    211     1
    207    212     1
    207    226     1
    207    227     1
    208    210     1
    208    225     1
    208    220     1
    208    221     1
    209    210     1
    209    225     1
    209    220     1
    209    221     1
    210    223     1
    210    224     1
    211    222     1
    211    214     1
    211    215     1
    212    222     1
    212    214     1
    212    215     1
    214    231     1
    214    223     1
    214    224     1
    215    231     1
    215    223     1
    215    224     1
    217    521     1
    217    229     1
    217    230     1
    218    521     1
    218    229     1
    218    230     1
    220    492     1
    220    226     1
    220    227     1
    221    492     1
    221    226     1
    221    227     1
    225    484     1
    225    485     1
    226    483     1
    227    483     1
    228    513     1
    228    514     1
    229    512     1
    230    512     1
    232    246     1
    232    247     1
    232    249     1
    232    250     1
    232    243     1
    232    244     1
    233    237     1
    233    238     1
    233    240     1
    233    241     1
    233    258     1
    233    259     1
    234    236     1
    234    239     1
    234    257     1
    234    246     1
    234    247     1
    235    236     1
    235    239     1
    235    257     1
    235    246     1
    235    247     1
    236    240     1
    236    241     1
    236    255     1
    236    256     1
    237    239     1
    237    254     1
    237    249     1
    237    250     1
    238    239     1
    238    254     1
    238    249     1
    238    250     1
    239    252     1
    239    253     1
    240    251     1
    240    243     1
    240    244     1
    241    251     1
    241    243     1
    241    244     1
    243    260     1
    243    252     1
    243    253     1
    244    260     1
    244    252     1
    244    253     1
    246    579     1
    246    258     1
    246    259     1
    247    579     1
    247    258     1
    247    259     1
    249    550     1
    249    255     1
    249    256     1
    250    550     1
    250    255     1
    250    256     1
    254    542     1
    254    543     1
    255    541     1
    256    541     1
    257    571     1
    257    572     1
    258    570     1
    259    570     1
    261    275     1
    261    276     1
    261    278     1
    261    279     1
    261    272     1
    261    273     1
    262    266     1
    262    267     1
    262    269     1
    262    270     1
    262    287     1
    262    288     1
    263    265     1
    263    268     1
    263    286     1
    263    275     1
    263    276     1
    264    265     1
    264    268     1
    264    286     1
    264    275     1
    264    276     1
    265    269     1
    265    270     1
    265    284     1
    265    285     1
    266    268     1
    266    283     1
    266    278     1
    266    279     1
    267    268     1
    267    283     1
    267    278     1
    267    279     1
    268    281     1
    268    282     1
    269    280     1
    269    272     1
    269    273     1
    270    280     1
    270    272     1
    270    273     1
    272    289     1
    272    281     1
    272    282     1
    273    289     1
    273    281     1
    273    282     1
    275    637     1
    275    287     1
    275    288     1
    276    637     1
    276    287     1
    276    288     1
    278    608     1
    278    284     1
    278    285     1
    279    608     1
    279    284     1
    279    285     1
    283    600     1
    283    601     1
    284    599     1
    285    599     1
    286    629     1
    286    630     1
    287    628     1
    288    628     1
    290    304     1
    290    305     1
    290    307     1
    290    308     1
    290    301     1
    290    302     1
    291    295     1
    291    296     1
    291    298     1
    291    299     1
    291    316     1
    291    317     1
    292    294     1
    292    297     1
    292    315     1
    292    304     1
    292    305     1
    293    294     1
    293    297     1
    293    315     1
    293    304     1
    293    305     1
    294    298     1
    294    299     1
    294    313     1
    294    314     1
    295    297     1
    295    312     1
    295    307     1
    295    308     1
    296    297     1
    296    312     1
    296    307     1
    296    308     1
    297    310     1
    297    311     1
    298    309     1
    298    301     1
    298    302     1
    299    309     1
    299    301     1
    299    302     1
    301    318     1
    301    310     1
    301    311     1
    302    318     1
    302    310     1
    302    311     1
    304    695     1
    304    316     1
    304    317     1
    305    695     1
    305    316     1
    305    317     1
    307    666     1
    307    313     1
    307    314     1
    308    666     1
    308    313     1
    308    314     1
    312    639     1
    312    640     1
    313    638     1
    314    638     1
    315    668     1
    315    669     1
    316    667     1
    317    667     1
    319    333     1
    319    334     1
    319    336     1
    319    337     1
    319    330     1
    319    331     1
    320    324     1
    320    325     1
    320    327     1
    320    328     1
    320    345     1
    320    346     1
    321    323     1
    321    326     1
    321    344     1
    321    333     1
    321    334     1
    322    323     1
    322    326     1
    322    344     1
    322    333     1
    322    334     1
    323    327     1
    323    328     1
    323    342     1
    323    343     1
    324    326     1
    324    341     1
    324    336     1
    324    337     1
    325    326     1
    325    341     1
    325    336     1
    325    337     1
    326    339     1
    326    340     1
    327    338     1
    327    330     1
    327    331     1
    328    338     1
    328    330     1
    328    331     1
    330    347     1
    330    339     1
    330    340     1
    331    347     1
    331    339     1
    331    340     1
    333    753     1
    333    345     1
    333    346     1
    334    753     1
    334    345     1
    334    346     1
    336    724     1
    336    342     1
    336    343     1
    337    724     1
    337    342     1
    337    343     1
    341    697     1
    341    698     1
    342    696     1
    343    696     1
    344    726     1
    344    727     1
    345    725     1
    346    725     1
    348    362     1
    348    363     1
    348    365     1
    348    366     1
    348    359     1
    348    360     1
    349    353     1
    349    354     1
    349    356     1
    349    357     1
    349    374     1
    349    375     1
    350    352     1
    350    355     1
    350    373     1
    350    362     1
    350    363     1
    351    352     1
    351    355     1
    351    373     1
    351    362     1
    351    363     1
    352    356     1
    352    357     1
    352    371     1
    352    372     1
    353    355     1
    353    370     1
    353    365     1
    353    366     1
    354    355     1
    354    370     1
    354    365     1
    354    366     1
    355    368     1
    355    369     1
    356    367     1
    356    359     1
    356    360     1
    357    367     1
    357    359     1
    357    360     1
    359    376     1
    359    368     1
    359    369     1
    360    376     1
    360    368     1
    360    369     1
    362    811     1
    362    374     1
    362    375     1
    363    811     1
    363    374     1
    363    375     1
    365    782     1
    365    371     1
    365    372     1
    366    782     1
    366    371     1
    366    372     1
    370    755     1
    370    756     1
    371    754     1
    372    754     1
    373    784     1
    373    785     1
    374    783     1
    375    783     1
    377    391     1
    377    392     1
    377    394     1
    377    395     1
    377    388     1
    377    389     1
    378    382     1
    378    383     1
    378    385     1
    378    386     1
    378    403     1
    378    404     1
    379    381     1
    379    384     1
    379    402     1
    379    391     1
    379    392     1
    380    381     1
    380    384     1
    380    402     1
    380    391     1
    380    392     1
    381    385     1
    381    386     1
    381    400     1
    381    401     1
    382    384     1
    382    399     1
    382    394     1
    382    395     1
    383    384     1
    383    399     1
    383    394     1
    383    395     1
    384    397     1
    384    398     1
    385    396     1
    385    388     1
    385    389     1
    386    396     1
    386    388     1
    386    389     1
    388    405     1
    388    397     1
    388    398     1
    389    405     1
    389    397     1
    389    398     1
    391    869     1
    391    403     1
    391    404     1
    392    869     1
    392    403     1
    392    404     1
    394    840     1
    394    400     1
    394    401     1
    395    840     1
    395    400     1
    395    401     1
    399    813     1
    399    814     1
    400    812     1
    401    812     1
    402    842     1
    402    843     1
    403    841     1
    404    841     1
    406    420     1
    406    421     1
    406    423     1
    406    424     1
    406    417     1
    406    418     1
    407    411     1
    407    412     1
    407    414     1
    407    415     1
    407    432     1
    407    433     1
    408    410     1
    408    413     1
    408    431     1
    408    420     1
    408    421     1
    409    410     1
    409    413     1
    409    431     1
    409    420     1
    409    421     1
    410    414     1
    410    415     1
    410    429     1
    410    430     1
    411    413     1
    411    428     1
    411    423     1
    411    424     1
    412    413     1
    412    428     1
    412    423     1
    412    424     1
    413    426     1
    413    427     1
    414    425     1
    414    417     1
    414    418     1
    415    425     1
    415    417     1
    415    418     1
    417    434     1
    417    426     1
    417    427     1
    418    434     1
    418    426     1
    418    427     1
    420    927     1
    420    432     1
    420    433     1
    421    927     1
    421    432     1
    421    433     1
    423    898     1
    423    429     1
    423    430     1
    424    898     1
    424    429     1
    424    430     1
    428    871     1
    428    872     1
    429    870     1
    430    870     1
    431    900     1
    431    901     1
    432    899     1
    433    899     1
    435    449     1
    435    450     1
    435    452     1
    435    453     1
    435    446     1
    435    447     1
    436    440     1
    436    441     1
    436    443     1
    436    444     1
    436    461     1
    436    462     1
    437    439     1
    437    442     1
    437    460     1
    437    449     1
    437    450     1
    438    439     1
    438    442     1
    438    460     1
    438    449     1
    438    450     1
    439    443     1
    439    444     1
    439    458     1
    439    459     1
    440    442     1
    440    457     1
    440    452     1
    440    453     1
    441    442     1
    441    457     1
    441    452     1
    441    453     1
    442    455     1
    442    456     1
    443    454     1
    443    446     1
    443    447     1
    444    454     1
    444    446     1
    444    447     1
    446    463     1
    446    455     1
    446    456     1
    447    463     1
    447    455     1
    447    456     1
    449    985     1
    449    461     1
    449    462     1
    450    985     1
    450    461     1
    450    462     1
    452    956     1
    452    458     1
    452    459     1
    453    956     1
    453    458     1
    453    459     1
    457    929     1
    457    930     1
    458    928     1
    459    928     1
    460    958     1
    460    959     1
    461    957     1
    462    957     1
    464    478     1
    464    479     1
    464    481     1
    464    482     1
    464    475     1
    464    476     1
    465    469     1
    465    470     1
    465    472     1
    465    473     1
    465    490     1
    465    491     1
    466    468     1
    466    471     1
    466    489     1
    466    478     1
    466    479     1
    467    468     1
    467    471     1
    467    489     1
    467    478     1
    467    479     1
    468    472     1
    468    473     1
    468    487     1
    468    488     1
    469    471     1
    469    486     1
    469    481     1
    469    482     1
    470    471     1
    470    486     1
    470    481     1
    470    482     1
    471    484     1
    471    485     1
    472    483     1
    472    475     1
    472    476     1
    473    483     1
    473    475     1
    473    476     1
    475    492     1
    475    484     1
    475    485     1
    476    492     1
    476    484     1
    476    485     1
    478   1043     1
    478    490     1
    478    491     1
    479   1043     1
    479    490     1
    479    491     1
    481   1014     1
    481    487     1
    481    488     1
    482   1014     1
    482    487     1
    482    488     1
    486    987     1
    486    988     1
    487    986     1
    488    986     1
    489   1016     1
    489   1017     1
    490   1015     1
    491   1015     1
    493    507     1
    493    508     1
    493    510     1
    493    511     1
    493    504     1
    493    505     1
    494    498     1
    494    499     1
    494    501     1
    494    502     1
    494    519     1
    494    520     1
    495    497     1
    495    500     1
    495    518     1
    495    507     1
    495    508     1
    496    497     1
    496    500     1
    496    518     1
    496    507     1
    496    508     1
    497    501     1
    497    502     1
    497    516     1
    497    517     1
    498    500     1
    498    515     1
    498    510     1
    498    511     1
    499    500     1
    499    515     1
    499    510     1
    499    511     1
    500    513     1
    500    514     1
    501    512     1
    501    504     1
    501    505     1
    502    512     1
    502    504     1
    502    505     1
    504    521     1
    504    513     1
    504    514     1
    505    521     1
    505    513     1
    505    514     1
    507   1101     1
    507    519     1
    507    520     1
    508   1101     1
    508    519     1
    508    520     1
    510   1072     1
    510    516     1
    510    517     1
    511   1072     1
    511    516     1
    511    517     1
    515   1045     1
    515   1046     1
    516   1044     1
    517   1044     1
    518   1074     1
    518   1075     1
    519   1073     1
    520   1073     1
    522    536     1
    522    537     1
    522    539     1
    522    540     1
    522    533     1
    522    534     1
    523    527     1
    523    528     1
    523    530     1
    523    531     1
    523    548     1
    523    549     1
    524    526     1
    524    529     1
    524    547     1
    524    536     1
    524    537     1
    525    526     1
    525    529     1
    525    547     1
    525    536     1
    525    537     1
    526    530     1
    526    531     1
    526    545     1
    526    546     1
    527    529     1
    527    544     1
    527    539     1
    527    540     1
    528    529     1
    528    544     1
    528    539     1
    528    540     1
    529    542     1
    529    543     1
    530    541     1
    530    533     1
    530    534     1
    531    541     1
    531    533     1
    531    534     1
    533    550     1
    533    542     1
    533    543     1
    534    550     1
    534    542     1
    534    543     1
    536   1159     1
    536    548     1
    536    549     1
    537   1159     1
    537    548     1
    537    549     1
    539   1130     1
    539    545     1
    539    546     1
    540   1130     1
    540    545     1
    540    546     1
    544   1103     1
    544   1104     1
    545   1102     1
    546   1102     1
    547   1132     1
    547   1133     1
    548   1131     1
    549   1131     1
    551    565     1
    551    566     1
    551    568     1
    551    569     1
    551    562     1
    551    563     1
    552    556     1
    552    557     1
    552    559     1
    552    560     1
    552    577     1
    552    578     1
    553    555     1
    553    558     1
    553    576     1
    553    565     1
    553    566     1
    554    555     1
    554    558     1
    554    576     1
    554    565     1
    554    566     1
    555    559     1
    555    560     1
    555    574     1
    555    575     1
    556    558     1
    556    573     1
    556    568     1
    556    569     1
    557    558     1
    557    573     1
    557    568     1
    557    569     1
    558    571     1
    558    572     1
    559    570     1
    559    562     1
    559    563     1
    560    570     1
    560    562     1
    560    563     1
    562    579     1
    562    571     1
    562    572     1
    563    579     1
    563    571     1
    563    572     1
    565   1217     1
    565    577     1
    565    578     1
    566   1217     1
    566    577     1
    566    578     1
    568   1188     1
    568    574     1
    568    575     1
    569   1188     1
    569    574     1
    569    575     1
    573   1161     1
    573   1162     1
    574   1160     1
    575   1160     1
    576   1190     1
    576   1191     1
    577   1189     1
    578   1189     1
    580    594     1
    580    595     1
    580    597     1
    580    598     1
    580    591     1
    580    592     1
    581    585     1
    581    586     1
    581    588     1
    581    589     1
    581    606     1
    581    607     1
    582    584     1
    582    587     1
    582    605     1
    582    594     1
    582    595     1
    583    584     1
    583    587     1
    583    605     1
    583    594     1
    583    595     1
    584    588     1
    584    589     1
    584    603     1
    584    604     1
    585    587     1
    585    602     1
    585    597     1
    585    598     1
    586    587     1
    586    602     1
    586    597     1
    586    598     1
    587    600     1
    587    601     1
    588    599     1
    588    591     1
    588    592     1
    589    599     1
    589    591     1
    589    592     1
    591    608     1
    591    600     1
    591    601     1
    592    608     1
    592    600     1
    592    601     1
    594   1275     1
    594    606     1
    594    607     1
    595   1275     1
    595    606     1
    595    607     1
    597   1246     1
    597    603     1
    597    604     1
    598   1246     1
    598    603     1
    598    604     1
    602   1219     1
    602   1220     1
    603   1218     1
    604   1218     1
    605   1248     1
    605   1249     1
    606   1247     1
    607   1247     1
    609    623     1
    609    624     1
    609    626     1
    609    627     1
    609    620     1
    609    621     1
    610    614     1
    610    615     1
    610    617     1
    610    618     1
    610    635     1
    610    636     1
    611    613     1
    611    616     1
    611    634     1
    611    623     1
    611    624     1
    612    613     1
    612    616     1
    612    634     1
    612    623     1
    612    624     1
    613    617     1
    613    618     1
    613    632     1
    613    633     1
    614    616     1
    614    631     1
    614    626     1
    614    627     1
    615    616     1
    615    631     1
    615    626     1
    615    627     1
    616    629     1
    616    630     1
    617    628     1
    617    620     1
    617    621     1
    618    628     1
    618    620     1
    618    621     1
    620    637     1
    620    629     1
    620    630     1
    621    637     1
    621    629     1
    621    630     1
    623   1333     1
    623    635     1
    623    636     1
    624   1333     1
    624    635     1
    624    636     1
    626   1304     1
    626    632     1
    626    633     1
    627   1304     1
    627    632     1
    627    633     1
    631   1277     1
    631   1278     1
    632   1276     1
    633   1276     1
    634   1306     1
    634   1307     1
    635   1305     1
    636   1305     1
    638    645     1
    638    646     1
    639    644     1
    639    642     1
    639    643     1
    640    644     1
    640    642     1
    640    643     1
    642    666     1
    642    647     1
    642    645     1
    642    646     1
    643    666     1
    643    647     1
    643    645     1
    643    646     1
    644    649     1
    644    650     1
    644    658     1
    644    659     1
    645    648     1
    645    657     1
    646    648     1
    646    657     1
    647    652     1
    647    653     1
    647    661     1
    647    662     1
    648    658     1
    648    659     1
    649    657     1
    649    654     1
    649    652     1
    649    653     1
    650    657     1
    650    654     1
    650    652     1
    650    653     1
    652    655     1
    652    656     1
    653    655     1
    653    656     1
    658    663     1
    658    661     1
    658    662     1
    659    663     1
    659    661     1
    659    662     1
    661    664     1
    661    665     1
    662    664     1
    662    665     1
    667    674     1
    667    675     1
    668    673     1
    668    671     1
    668    672     1
    669    673     1
    669    671     1
    669    672     1
    671    676     1
    671    674     1
    671    675     1
    671    695     1
    672    676     1
    672    674     1
    672    675     1
    672    695     1
    673    678     1
    673    679     1
    673    687     1
    673    688     1
    674    677     1
    674    686     1
    675    677     1
    675    686     1
    676    681     1
    676    682     1
    676    690     1
    676    691     1
    677    687     1
    677    688     1
    678    683     1
    678    681     1
    678    682     1
    678    686     1
    679    683     1
    679    681     1
    679    682     1
    679    686     1
    681    684     1
    681    685     1
    682    684     1
    682    685     1
    687    692     1
    687    690     1
    687    691     1
    688    692     1
    688    690     1
    688    691     1
    690    693     1
    690    694     1
    691    693     1
    691    694     1
    696    703     1
    696    704     1
    697    702     1
    697    700     1
    697    701     1
    698    702     1
    698    700     1
    698    701     1
    700    724     1
    700    705     1
    700    703     1
    700    704     1
    701    724     1
    701    705     1
    701    703     1
    701    704     1
    702    707     1
    702    708     1
    702    716     1
    702    717     1
    703    706     1
    703    715     1
    704    706     1
    704    715     1
    705    710     1
    705    711     1
    705    719     1
    705    720     1
    706    716     1
    706    717     1
    707    715     1
    707    712     1
    707    710     1
    707    711     1
    708    715     1
    708    712     1
    708    710     1
    708    711     1
    710    713     1
    710    714     1
    711    713     1
    711    714     1
    716    721     1
    716    719     1
    716    720     1
    717    721     1
    717    719     1
    717    720     1
    719    722     1
    719    723     1
    720    722     1
    720    723     1
    725    732     1
    725    733     1
    726    731     1
    726    729     1
    726    730     1
    727    731     1
    727    729     1
    727    730     1
    729    734     1
    729    732     1
    729    733     1
    729    753     1
    730    734     1
    730    732     1
    730    733     1
    730    753     1
    731    736     1
    731    737     1
    731    745     1
    731    746     1
    732    735     1
    732    744     1
    733    735     1
    733    744     1
    734    739     1
    734    740     1
    734    748     1
    734    749     1
    735    745     1
    735    746     1
    736    741     1
    736    739     1
    736    740     1
    736    744     1
    737    741     1
    737    739     1
    737    740     1
    737    744     1
    739    742     1
    739    743     1
    740    742     1
    740    743     1
    745    750     1
    745    748     1
    745    749     1
    746    750     1
    746    748     1
    746    749     1
    748    751     1
    748    752     1
    749    751     1
    749    752     1
    754    761     1
    754    762     1
    755    760     1
    755    758     1
    755    759     1
    756    760     1
    756    758     1
    756    759     1
    758    782     1
    758    763     1
    758    761     1
    758    762     1
    759    782     1
    759    763     1
    759    761     1
    759    762     1
    760    765     1
    760    766     1
    760    774     1
    760    775     1
    761    764     1
    761    773     1
    762    764     1
    762    773     1
    763    768     1
    763    769     1
    763    777     1
    763    778     1
    764    774     1
    764    775     1
    765    773     1
    765    770     1
    765    768     1
    765    769     1
    766    773     1
    766    770     1
    766    768     1
    766    769     1
    768    771     1
    768    772     1
    769    771     1
    769    772     1
    774    779     1
    774    777     1
    774    778     1
    775    779     1
    775    777     1
    775    778     1
    777    780     1
    777    781     1
    778    780     1
    778    781     1
    783    790     1
    783    791     1
    784    789     1
    784    787     1
    784    788     1
    785    789     1
    785    787     1
    785    788     1
    787    792     1
    787    790     1
    787    791     1
    787    811     1
    788    792     1
    788    790     1
    788    791     1
    788    811     1
    789    794     1
    789    795     1
    789    803     1
    789    804     1
    790    793     1
    790    802     1
    791    793     1
    791    802     1
    792    797     1
    792    798     1
    792    806     1
    792    807     1
    793    803     1
    793    804     1
    794    799     1
    794    797     1
    794    798     1
    794    802     1
    795    799     1
    795    797     1
    795    798     1
    795    802     1
    797    800     1
    797    801     1
    798    800     1
    798    801     1
    803    808     1
    803    806     1
    803    807     1
    804    808     1
    804    806     1
    804    807     1
    806    809     1
    806    810     1
    807    809     1
    807    810     1
    812    819     1
    812    820     1
    813    818     1
    813    816     1
    813    817     1
    814    818     1
    814    816     1
    814    817     1
    816    840     1
    816    821     1
    816    819     1
    816    820     1
    817    840     1
    817    821     1
    817    819     1
    817    820     1
    818    823     1
    818    824     1
    818    832     1
    818    833     1
    819    822     1
    819    831     1
    820    822     1
    820    831     1
    821    826     1
    821    827     1
    821    835     1
    821    836     1
    822    832     1
    822    833     1
    823    831     1
    823    828     1
    823    826     1
    823    827     1
    824    831     1
    824    828     1
    824    826     1
    824    827     1
    826    829     1
    826    830     1
    827    829     1
    827    830     1
    832    837     1
    832    835     1
    832    836     1
    833    837     1
    833    835     1
    833    836     1
    835    838     1
    835    839     1
    836    838     1
    836    839     1
    841    848     1
    841    849     1
    842    847     1
    842    845     1
    842    846     1
    843    847     1
    843    845     1
    843    846     1
    845    850     1
    845    848     1
    845    849     1
    845    869     1
    846    850     1
    846    848     1
    846    849     1
    846    869     1
    847    852     1
    847    853     1
    847    861     1
    847    862     1
    848    851     1
    848    860     1
    849    851     1
    849    860     1
    850    855     1
    850    856     1
    850    864     1
    850    865     1
    851    861     1
    851    862     1
    852    857     1
    852    855     1
    852    856     1
    852    860     1
    853    857     1
    853    855     1
    853    856     1
    853    860     1
    855    858     1
    855    859     1
    856    858     1
    856    859     1
    861    866     1
    861    864     1
    861    865     1
    862    866     1
    862    864     1
    862    865     1
    864    867     1
    864    868     1
    865    867     1
    865    868     1
    870    877     1
    870    878     1
    871    876     1
    871    874     1
    871    875     1
    872    876     1
    872    874     1
    872    875     1
    874    898     1
    874    879     1
    874    877     1
    874    878     1
    875    898     1
    875    879     1
    875    877     1
    875    878     1
    876    881     1
    876    882     1
    876    890     1
    876    891     1
    877    880     1
    877    889     1
    878    880     1
    878    889     1
    879    884     1
    879    885     1
    879    893     1
    879    894     1
    880    890     1
    880    891     1
    881    889     1
    881    886     1
    881    884     1
    881    885     1
    882    889     1
    882    886     1
    882    884     1
    882    885     1
    884    887     1
    884    888     1
    885    887     1
    885    888     1
    890    895     1
    890    893     1
    890    894     1
    891    895     1
    891    893     1
    891    894     1
    893    896     1
    893    897     1
    894    896     1
    894    897     1
    899    906     1
    899    907     1
    900    905     1
    900    903     1
    900    904     1
    901    905     1
    901    903     1
    901    904     1
    903    908     1
    903    906     1
    903    907     1
    903    927     1
    904    908     1
    904    906     1
    904    907     1
    904    927     1
    905    910     1
    905    911     1
    905    919     1
    905    920     1
    906    909     1
    906    918     1
    907    909     1
    907    918     1
    908    913     1
    908    914     1
    908    922     1
    908    923     1
    909    919     1
    909    920     1
    910    915     1
    910    913     1
    910    914     1
    910    918     1
    911    915     1
    911    913     1
    911    914     1
    911    918     1
    913    916     1
    913    917     1
    914    916     1
    914    917     1
    919    924     1
    919    922     1
    919    923     1
    920    924     1
    920    922     1
    920    923     1
    922    925     1
    922    926     1
    923    925     1
    923    926     1
    928    935     1
    928    936     1
    929    934     1
    929    932     1
    929    933     1
    930    934     1
    930    932     1
    930    933     1
    932    956     1
    932    937     1
    932    935     1
    932    936     1
    933    956     1
    933    937     1
    933    935     1
    933    936     1
    934    939     1
    934    940     1
    934    948     1
    934    949     1
    935    938     1
    935    947     1
    936    938     1
    936    947     1
    937    942     1
    937    943     1
    937    951     1
    937    952     1
    938    948     1
    938    949     1
    939    947     1
    939    944     1
    939    942     1
    939    943     1
    940    947     1
    940    944     1
    940    942     1
    940    943     1
    942    945     1
    942    946     1
    943    945     1
    943    946     1
    948    953     1
    948    951     1
    948    952     1
    949    953     1
    949    951     1
    949    952     1
    951    954     1
    951    955     1
    952    954     1
    952    955     1
    957    964     1
    957    965     1
    958    963     1
    958    961     1
    958    962     1
    959    963     1
    959    961     1
    959    962     1
    961    966     1
    961    964     1
    961    965     1
    961    985     1
    962    966     1
    962    964     1
    962    965     1
    962    985     1
    963    968     1
    963    969     1
    963    977     1
    963    978     1
    964    967     1
    964    976     1
    965    967     1
    965    976     1
    966    971     1
    966    972     1
    966    980     1
    966    981     1
    967    977     1
    967    978     1
    968    973     1
    968    971     1
    968    972     1
    968    976     1
    969    973     1
    969    971     1
    969    972     1
    969    976     1
    971    974     1
    971    975     1
    972    974     1
    972    975     1
    977    982     1
    977    980     1
    977    981     1
    978    982     1
    978    980     1
    978    981     1
    980    983     1
    980    984     1
    981    983     1
    981    984     1
    986    993     1
    986    994     1
    987    992     1
    987    990     1
    987    991     1
    988    992     1
    988    990     1
    988    991     1
    990   1014     1
    990    995     1
    990    993     1
    990    994     1
    991   1014     1
    991    995     1
    991    993     1
    991    994     1
    992    997     1
    992    998     1
    992   1006     1
    992   1007     1
    993    996     1
    993   1005     1
    994    996     1
    994   1005     1
    995   1000     1
    995   1001     1
    995   1009     1
    995   1010     1
    996   1006     1
    996   1007     1
    997   1005     1
    997   1002     1
    997   1000     1
    997   1001     1
    998   1005     1
    998   1002     1
    998   1000     1
    998   1001     1
   1000   1003     1
   1000   1004     1
   1001   1003     1
   1001   1004     1
   1006   1011     1
   1006   1009     1
   1006   1010     1
   1007   1011     1
   1007   1009     1
   1007   1010     1
   1009   1012     1
   1009   1013     1
   1010   1012     1
   1010   1013     1
   1015   1022     1
   1015   1023     1
   1016   1021     1
   1016   1019     1
   1016   1020     1
   1017   1021     1
   1017   1019     1
   1017   1020     1
   1019   1024     1
   1019   1022     1
   1019   1023     1
   1019   1043     1
   1020   1024     1
   1020   1022     1
   1020   1023     1
   1020   1043     1
   1021   1026     1
   1021   1027     1
   1021   1035     1
   1021   1036     1
   1022   1025     1
   1022   1034     1
   1023   1025     1
   1023   1034     1
   1024   1029     1
   1024   1030     1
   1024   1038     1
   1024   1039     1
   1025   1035     1
   1025   1036     1
   1026   1031     1
   1026   1029     1
   1026   1030     1
   1026   1034     1
   1027   1031     1
   1027   1029     1
   1027   1030     1
   1027   1034     1
   1029   1032     1
   1029   1033     1
   1030   1032     1
   1030   1033     1
   1035   1040     1
   1035   1038     1
   1035   1039     1
   1036   1040     1
   1036   1038     1
   1036   1039     1
   1038   1041     1
   1038   1042     1
   1039   1041     1
   1039   1042     1
   1044   1051     1
   1044   1052     1
   1045   1050     1
   1045   1048     1
   1045   1049     1
   1046   1050     1
   1046   1048     1
   1046   1049     1
   1048   1072     1
   1048   1053     1
   1048   1051     1
   1048   1052     1
   1049   1072     1
   1049   1053     1
   1049   1051     1
   1049   1052     1
   1050   1055     1
   1050   1056     1
   1050   1064     1
   1050   1065     1
   1051   1054     1
   1051   1063     1
   1052   1054     1
   1052   1063     1
   1053   1058     1
   1053   1059     1
   1053   1067     1
   1053   1068     1
   1054   1064     1
   1054   1065     1
   1055   1063     1
   1055   1060     1
   1055   1058     1
   1055   1059     1
   1056   1063     1
   1056   1060     1
   1056   1058     1
   1056   1059     1
   1058   1061     1
   1058   1062     1
   1059   1061     1
   1059   1062     1
   1064   1069     1
   1064   1067     1
   1064   1068     1
   1065   1069     1
   1065   1067     1
   1065   1068     1
   1067   1070     1
   1067   1071     1
   1068   1070     1
   1068   1071     1
   1073   1080     1
   1073   1081     1
   1074   1079     1
   1074   1077     1
   1074   1078     1
   1075   1079     1
   1075   1077     1
   1075   1078     1
   1077   1082     1
   1077   1080     1
   1077   1081     1
   1077   1101     1
   1078   1082     1
   1078   1080     1
   1078   1081     1
   1078   1101     1
   1079   1084     1
   1079   1085     1
   1079   1093     1
   1079   1094     1
   1080   1083     1
   1080   1092     1
   1081   1083     1
   1081   1092     1
   1082   1087     1
   1082   1088     1
   1082   1096     1
   1082   1097     1
   1083   1093     1
   1083   1094     1
   1084   1089     1
   1084   1087     1
   1084   1088     1
   1084   1092     1
   1085   1089     1
   1085   1087     1
   1085   1088     1
   1085   1092     1
   1087   1090     1
   1087   1091     1
   1088   1090     1
   1088   1091     1
   1093   1098     1
   1093   1096     1
   1093   1097     1
   1094   1098     1
   1094   1096     1
   1094   1097     1
   1096   1099     1
   1096   1100     1
   1097   1099     1
   1097   1100     1
   1102   1109     1
   1102   1110     1
   1103   1108     1
   1103   1106     1
   1103   1107     1
   1104   1108     1
   1104   1106     1
   1104   1107     1
   1106   1130     1
   1106   1111     1
   1106   1109     1
   1106   1110     1
   1107   1130     1
   1107   1111     1
   1107   1109     1
   1107   1110     1
   1108   1113     1
   1108   1114     1
   1108   1122     1
   1108   1123     1
   1109   1112     1
   1109   1121     1
   1110   1112     1
   1110   1121     1
   1111   1116     1
   1111   1117     1
   1111   1125     1
   1111   1126     1
   1112   1122     1
   1112   1123     1
   1113   1121     1
   1113   1118     1
   1113   1116     1
   1113   1117     1
   1114   1121     1
   1114   1118     1
   1114   1116     1
   1114   1117     1
   1116   1119     1
   1116   1120     1
   1117   1119     1
   1117   1120     1
   1122   1127     1
   1122   1125     1
   1122   1126     1
   1123   1127     1
   1123   1125     1
   1123   1126     1
   1125   1128     1
   1125   1129     1
   1126   1128     1
   1126   1129     1
   1131   1138     1
   1131   1139     1
   1132   1137     1
   1132   1135     1
   1132   1136     1
   1133   1137     1
   1133   1135     1
   1133   1136     1
   1135   1140     1
   1135   1138     1
   1135   1139     1
   1135   1159     1
   1136   1140     1
   1136   1138     1
   1136   1139     1
   1136   1159     1
   1137   1142     1
   1137   1143     1
   1137   1151     1
   1137   1152     1
   1138   1141     1
   1138   1150     1
   1139   1141     1
   1139   1150     1
   1140   1145     1
   1140   1146     1
   1140   1154     1
   1140   1155     1
   1141   1151     1
   1141   1152     1
   1142   1147     1
   1142   1145     1
   1142   1146     1
   1142   1150     1
   1143   1147     1
   1143   1145     1
   1143   1146     1
   1143   1150     1
   1145   1148     1
   1145   1149     1
   1146   1148     1
   1146   1149     1
   1151   1156     1
   1151   1154     1
   1151   1155     1
   1152   1156     1
   1152   1154     1
   1152   1155     1
   1154   1157     1
   1154   1158     1
   1155   1157     1
   1155   1158     1
   1160   1167     1
   1160   1168     1
   1161   1166     1
   1161   1164     1
   1161   1165     1
   1162   1166     1
   1162   1164     1
   1162   1165     1
   1164   1188     1
   1164   1169     1
   1164   1167     1
   1164   1168     1
   1165   1188     1
   1165   1169     1
   1165   1167     1
   1165   1168     1
   1166   1171     1
   1166   1172     1
   1166   1180     1
   1166   1181     1
   1167   1170     1
   1167   1179     1
   1168   1170     1
   1168   1179     1
   1169   1174     1
   1169   1175     1
   1169   1183     1
   1169   1184     1
   1170   1180     1
   1170   1181     1
   1171   1179     1
   1171   1176     1
   1171   1174     1
   1171   1175     1
   1172   1179     1
   1172   1176     1
   1172   1174     1
   1172   1175     1
   1174   1177     1
   1174   1178     1
   1175   1177     1
   1175   1178     1
   1180   1185     1
   1180   1183     1
   1180   1184     1
   1181   1185     1
   1181   1183     1
   1181   1184     1
   1183   1186     1
   1183   1187     1
   1184   1186     1
   1184   1187     1
   1189   1196     1
   1189   1197     1
   1190   1195     1
   1190   1193     1
   1190   1194     1
   1191   1195     1
   1191   1193     1
   1191   1194     1
   1193   1198     1
   1193   1196     1
   1193   1197     1
   1193   1217     1
   1194   1198     1
   1194   1196     1
   1194   1197     1
   1194   1217     1
   1195   1200     1
   1195   1201     1
   1195   1209     1
   1195   1210     1
   1196   1199     1
   1196   1208     1
   1197   1199     1
   1197   1208     1
   1198   1203     1
   1198   1204     1
   1198   1212     1
   1198   1213     1
   1199   1209     1
   1199   1210     1
   1200   1205     1
   1200   1203     1
   1200   1204     1
   1200   1208     1
   1201   1205     1
   1201   1203     1
   1201   1204     1
   1201   1208     1
   1203   1206     1
   1203   1207     1
   1204   1206     1
   1204   1207     1
   1209   1214     1
   1209   1212     1
   1209   1213     1
   1210   1214     1
   1210   1212     1
   1210   1213     1
   1212   1215     1
   1212   1216     1
   1213   1215     1
   1213   1216     1
   1218   1225     1
   1218   1226     1
   1219   1224     1
   1219   1222     1
   1219   1223     1
   1220   1224     1
   1220   1222     1
   1220   1223     1
   1222   1246     1
   1222   1227     1
   1222   1225     1
   1222   1226     1
   1223   1246     1
   1223   1227     1
   1223   1225     1
   1223   1226     1
   1224   1229     1
   1224   1230     1
   1224   1238     1
   1224   1239     1
   1225   1228     1
   1225   1237     1
   1226   1228     1
   1226   1237     1
   1227   1232     1
   1227   1233     1
   1227   1241     1
   1227   1242     1
   1228   1238     1
   1228   1239     1
   1229   1237     1
   1229   1234     1
   1229   1232     1
   1229   1233     1
   1230   1237     1
   1230   1234     1
   1230   1232     1
   1230   1233     1
   1232   1235     1
   1232   1236     1
   1233   1235     1
   1233   1236     1
   1238   1243     1
   1238   1241     1
   1238   1242     1
   1239   1243     1
   1239   1241     1
   1239   1242     1
   1241   1244     1
   1241   1245     1
   1242   1244     1
   1242   1245     1
   1247   1254     1
   1247   1255     1
   1248   1253     1
   1248   1251     1
   1248   1252     1
   1249   1253     1
   1249   1251     1
   1249   1252     1
   1251   1256     1
   1251   1254     1
   1251   1255     1
   1251   1275     1
   1252   1256     1
   1252   1254     1
   1252   1255     1
   1252   1275     1
   1253   1258     1
   1253   1259     1
   1253   1267     1
   1253   1268     1
   1254   1257     1
   1254   1266     1
   1255   1257     1
   1255   1266     1
   1256   1261     1
   1256   1262     1
   1256   1270     1
   1256   1271     1
   1257   1267     1
   1257   1268     1
   1258   1263     1
   1258   1261     1
   1258   1262     1
   1258   1266     1
   1259   1263     1
   1259   1261     1
   1259   1262     1
   1259   1266     1
   1261   1264     1
   1261   1265     1
   1262   1264     1
   1262   1265     1
   1267   1272     1
   1267   1270     1
   1267   1271     1
   1268   1272     1
   1268   1270     1
   1268   1271     1
   1270   1273     1
   1270   1274     1
   1271   1273     1
   1271   1274     1
   1276   1283     1
   1276   1284     1
   1277   1282     1
   1277   1280     1
   1277   1281     1
   1278   1282     1
   1278   1280     1
   1278   1281     1
   1280   1304     1
   1280   1285     1
   1280   1283     1
   1280   1284     1
   1281   1304     1
   1281   1285     1
   1281   1283     1
   1281   1284     1
   1282   1287     1
   1282   1288     1
   1282   1296     1
   1282   1297     1
   1283   1286     1
   1283   1295     1
   1284   1286     1
   1284   1295     1
   1285   1290     1
   1285   1291     1
   1285   1299     1
   1285   1300     1
   1286   1296     1
   1286   1297     1
   1287   1295     1
   1287   1292     1
   1287   1290     1
   1287   1291     1
   1288   1295     1
   1288   1292     1
   1288   1290     1
   1288   1291     1
   1290   1293     1
   1290   1294     1
   1291   1293     1
   1291   1294     1
   1296   1301     1
   1296   1299     1
   1296   1300     1
   1297   1301     1
   1297   1299     1
   1297   1300     1
   1299   1302     1
   1299   1303     1
   1300   1302     1
   1300   1303     1
   1305   1312     1
   1305   1313     1
   1306   1311     1
   1306   1309     1
   1306   1310     1
   1307   1311     1
   1307   1309     1
   1307   1310     1
   1309   1314     1
   1309   1312     1
   1309   1313     1
   1309   1333     1
   1310   1314     1
   1310   1312     1
   1310   1313     1
   1310   1333     1
   1311   1316     1
   1311   1317     1
   1311   1325     1
   1311   1326     1
   1312   1315     1
   1312   1324     1
   1313   1315     1
   1313   1324     1
   1314   1319     1
   1314   1320     1
   1314   1328     1
   1314   1329     1
   1315   1325     1
   1315   1326     1
   1316   1321     1
   1316   1319     1
   1316   1320     1
   1316   1324     1
   1317   1321     1
   1317   1319     1
   1317   1320     1
   1317   1324     1
   1319   1322     1
   1319   1323     1
   1320   1322     1
   1320   1323     1
   1325   1330     1
   1325   1328     1
   1325   1329     1
   1326   1330     1
   1326   1328     1
   1326   1329     1
   1328   1331     1
   1328   1332     1
   1329   1331     1
   1329   1332     1

[ angles ]
;    ai     aj     ak funct         c0         c1         c2         c3
      1      2     14     1   111.0400475 552.288000
      1      5     17     1   111.0400475 552.288000
      1      8     11     1   111.0400475 552.288000
      2      1      5     1   112.3500484 533.878400
      2      1      8     1   112.3500484 533.878400
      2     14     26     1   111.5100476 526.347200
      5      1      8     1   112.3500484 533.878400
      5     17     20     1   111.5100476 526.347200
      8     11     23     1   111.5100476 526.347200
     11     23     86     1   107.9700462 569.024000
     14     26    115     1   107.9700462 569.024000
     17     20     57     1   107.9700462 569.024000
     20     57     48     1   112.4800480 524.673600
     23     86     77     1   112.4800480 524.673600
     26    115    106     1   112.4800480 524.673600
     29     30     42     1   111.0400475 552.288000
     29     33     45     1   111.0400475 552.288000
     29     36     39     1   111.0400475 552.288000
     30     29     33     1   112.3500484 533.878400
     30     29     36     1   112.3500484 533.878400
     30     42     54     1   111.5100476 526.347200
     33     29     36     1   112.3500484 533.878400
     33     45     51     1   111.5100476 526.347200
     36     39     48     1   111.5100476 526.347200
     39     48     57     1   107.9700462 569.024000
     42     54    173     1   107.9700462 569.024000
     45     51    144     1   107.9700462 569.024000
     51    144    135     1   112.4800480 524.673600
     54    173    164     1   112.4800480 524.673600
     58     59     71     1   111.0400475 552.288000
     58     62     74     1   111.0400475 552.288000
     58     65     68     1   111.0400475 552.288000
     59     58     62     1   112.3500484 533.878400
     59     58     65     1   112.3500484 533.878400
     59     71     83     1   111.5100476 526.347200
     62     58     65     1   112.3500484 533.878400
     62     74     80     1   111.5100476 526.347200
     65     68     77     1   111.5100476 526.347200
     68     77     86     1   107.9700462 569.024000
     71     83    231     1   107.9700462 569.024000
     74     80    202     1   107.9700462 569.024000
     80    202    193     1   112.4800480 524.673600
     83    231    222     1   112.4800480 524.673600
     87     88    100     1   111.0400475 552.288000
     87     91    103     1   111.0400475 552.288000
     87     94     97     1   111.0400475 552.288000
     88     87     91     1   112.3500484 533.878400
     88     87     94     1   112.3500484 533.878400
     88    100    112     1   111.5100476 526.347200
     91     87     94     1   112.3500484 533.878400
     91    103    109     1   111.5100476 526.347200
     94     97    106     1   111.5100476 526.347200
     97    106    115     1   107.9700462 569.024000
    100    112    289     1   107.9700462 569.024000
    103    109    260     1   107.9700462 569.024000
    109    260    251     1   112.4800480 524.673600
    112    289    280     1   112.4800480 524.673600
    116    117    129     1   111.0400475 552.288000
    116    120    132     1   111.0400475 552.288000
    116    123    126     1   111.0400475 552.288000
    117    116    120     1   112.3500484 533.878400
    117    116    123     1   112.3500484 533.878400
    117    129    141     1   111.5100476 526.347200
    120    116    123     1   112.3500484 533.878400
    120    132    138     1   111.5100476 526.347200
    123    126    135     1   111.5100476 526.347200
    126    135    144     1   107.9700462 569.024000
    129    141    347     1   107.9700462 569.024000
    132    138    318     1   107.9700462 569.024000
    138    318    309     1   112.4800480 524.673600
    141    347    338     1   112.4800480 524.673600
    145    146    158     1   111.0400475 552.288000
    145    149    161     1   111.0400475 552.288000
    145    152    155     1   111.0400475 552.288000
    146    145    149     1   112.3500484 533.878400
    146    145    152     1   112.3500484 533.878400
    146    158    170     1   111.5100476 526.347200
    149    145    152     1   112.3500484 533.878400
    149    161    167     1   111.5100476 526.347200
    152    155    164     1   111.5100476 526.347200
    155    164    173     1   107.9700462 569.024000
    158    170    405     1   107.9700462 569.024000
    161    167    376     1   107.9700462 569.024000
    167    376    367     1   112.4800480 524.673600
    170    405    396     1   112.4800480 524.673600
    174    175    187     1   111.0400475 552.288000
    174    178    190     1   111.0400475 552.288000
    174    181    184     1   111.0400475 552.288000
    175    174    178     1   112.3500484 533.878400
    175    174    181     1   112.3500484 533.878400
    175    187    199     1   111.5100476 526.347200
    178    174    181     1   112.3500484 533.878400
    178    190    196     1   111.5100476 526.347200
    181    184    193     1   111.5100476 526.347200
    184    193    202     1   107.9700462 569.024000
    187    199    463     1   107.9700462 569.024000
    190    196    434     1   107.9700462 569.024000
    196    434    425     1   112.4800480 524.673600
    199    463    454     1   112.4800480 524.673600
    203    204    216     1   111.0400475 552.288000
    203    207    219     1   111.0400475 552.288000
    203    210    213     1   111.0400475 552.288000
    204    203    207     1   112.3500484 533.878400
    204    203    210     1   112.3500484 533.878400
    204    216    228     1   111.5100476 526.347200
    207    203    210     1   112.3500484 533.878400
    207    219    225     1   111.5100476 526.347200
    210    213    222     1   111.5100476 526.347200
    213    222    231     1   107.9700462 569.024000
    216    228    521     1   107.9700462 569.024000
    219    225    492     1   107.9700462 569.024000
    225    492    483     1   112.4800480 524.673600
    228    521    512     1   112.4800480 524.673600
    232    233    245     1   111.0400475 552.288000
    232    236    248     1   111.0400475 552.288000
    232    239    242     1   111.0400475 552.288000
    233    232    236     1   112.3500484 533.878400
    233    232    239     1   112.3500484 533.878400
    233    245    257     1   111.5100476 526.347200
    236    232    239     1   112.3500484 533.878400
    236    248    254     1   111.5100476 526.347200
    239    242    251     1   111.5100476 526.347200
    242    251    260     1   107.9700462 569.024000
    245    257    579     1   107.9700462 569.024000
    248    254    550     1   107.9700462 569.024000
    254    550    541     1   112.4800480 524.673600
    257    579    570     1   112.4800480 524.673600
    261    262    274     1   111.0400475 552.288000
    261    265    277     1   111.0400475 552.288000
    261    268    271     1   111.0400475 552.288000
    262    261    265     1   112.3500484 533.878400
    262    261    268     1   112.3500484 533.878400
    262    274    286     1   111.5100476 526.347200
    265    261    268     1   112.3500484 533.878400
    265    277    283     1   111.5100476 526.347200
    268    271    280     1   111.5100476 526.347200
    271    280    289     1   107.9700462 569.024000
    274    286    637     1   107.9700462 569.024000
    277    283    608     1   107.9700462 569.024000
    283    608    599     1   112.4800480 524.673600
    286    637    628     1   112.4800480 524.673600
    290    291    303     1   111.0400475 552.288000
    290    294    306     1   111.0400475 552.288000
    290    297    300     1   111.0400475 552.288000
    291    290    294     1   112.3500484 533.878400
    291    290    297     1   112.3500484 533.878400
    291    303    315     1   111.5100476 526.347200
    294    290    297     1   112.3500484 533.878400
    294    306    312     1   111.5100476 526.347200
    297    300    309     1   111.5100476 526.347200
    300    309    318     1   107.9700462 569.024000
    303    315    695     1   107.9700462 569.024000
    306    312    666     1   107.9700462 569.024000
    312    666    638     1   112.4800480 524.673600
    315    695    667     1   112.4800480 524.673600
    319    320    332     1   111.0400475 552.288000
    319    323    335     1   111.0400475 552.288000
    319    326    329     1   111.0400475 552.288000
    320    319    323     1   112.3500484 533.878400
    320    319    326     1   112.3500484 533.878400
    320    332    344     1   111.5100476 526.347200
    323    319    326     1   112.3500484 533.878400
    323    335    341     1   111.5100476 526.347200
    326    329    338     1   111.5100476 526.347200
    329    338    347     1   107.9700462 569.024000
    332    344    753     1   107.9700462 569.024000
    335    341    724     1   107.9700462 569.024000
    341    724    696     1   112.4800480 524.673600
    344    753    725     1   112.4800480 524.673600
    348    349    361     1   111.0400475 552.288000
    348    352    364     1   111.0400475 552.288000
    348    355    358     1   111.0400475 552.288000
    349    348    352     1   112.3500484 533.878400
    349    348    355     1   112.3500484 533.878400
    349    361    373     1   111.5100476 526.347200
    352    348    355     1   112.3500484 533.878400
    352    364    370     1   111.5100476 526.347200
    355    358    367     1   111.5100476 526.347200
    358    367    376     1   107.9700462 569.024000
    361    373    811     1   107.9700462 569.024000
    364    370    782     1   107.9700462 569.024000
    370    782    754     1   112.4800480 524.673600
    373    811    783     1   112.4800480 524.673600
    377    378    390     1   111.0400475 552.288000
    377    381    393     1   111.0400475 552.288000
    377    384    387     1   111.0400475 552.288000
    378    377    381     1   112.3500484 533.878400
    378    377    384     1   112.3500484 533.878400
    378    390    402     1   111.5100476 526.347200
    381    377    384     1   112.3500484 533.878400
    381    393    399     1   111.5100476 526.347200
    384    387    396     1   111.5100476 526.347200
    387    396    405     1   107.9700462 569.024000
    390    402    869     1   107.9700462 569.024000
    393    399    840     1   107.9700462 569.024000
    399    840    812     1   112.4800480 524.673600
    402    869    841     1   112.4800480 524.673600
    406    407    419     1   111.0400475 552.288000
    406    410    422     1   111.0400475 552.288000
    406    413    416     1   111.0400475 552.288000
    407    406    410     1   112.3500484 533.878400
    407    406    413     1   112.3500484 533.878400
    407    419    431     1   111.5100476 526.347200
    410    406    413     1   112.3500484 533.878400
    410    422    428     1   111.5100476 526.347200
    413    416    425     1   111.5100476 526.347200
    416    425    434     1   107.9700462 569.024000
    419    431    927     1   107.9700462 569.024000
    422    428    898     1   107.9700462 569.024000
    428    898    870     1   112.4800480 524.673600
    431    927    899     1   112.4800480 524.673600
    435    436    448     1   111.0400475 552.288000
    435    439    451     1   111.0400475 552.288000
    435    442    445     1   111.0400475 552.288000
    436    435    439     1   112.3500484 533.878400
    436    435    442     1   112.3500484 533.878400
    436    448    460     1   111.5100476 526.347200
    439    435    442     1   112.3500484 533.878400
    439    451    457     1   111.5100476 526.347200
    442    445    454     1   111.5100476 526.347200
    445    454    463     1   107.9700462 569.024000
    448    460    985     1   107.9700462 569.024000
    451    457    956     1   107.9700462 569.024000
    457    956    928     1   112.4800480 524.673600
    460    985    957     1   112.4800480 524.673600
    464    465    477     1   111.0400475 552.288000
    464    468    480     1   111.0400475 552.288000
    464    471    474     1   111.0400475 552.288000
    465    464    468     1   112.3500484 533.878400
    465    464    471     1   112.3500484 533.878400
    465    477    489     1   111.5100476 526.347200
    468    464    471     1   112.3500484 533.878400
    468    480    486     1   111.5100476 526.347200
    471    474    483     1   111.5100476 526.347200
    474    483    492     1   107.9700462 569.024000
    477    489   1043     1   107.9700462 569.024000
    480    486   1014     1   107.9700462 569.024000
    486   1014    986     1   112.4800480 524.673600
    489   1043   1015     1   112.4800480 524.673600
    493    494    506     1   111.0400475 552.288000
    493    497    509     1   111.0400475 552.288000
    493    500    503     1   111.0400475 552.288000
    494    493    497     1   112.3500484 533.878400
    494    493    500     1   112.3500484 533.878400
    494    506    518     1   111.5100476 526.347200
    497    493    500     1   112.3500484 533.878400
    497    509    515     1   111.5100476 526.347200
    500    503    512     1   111.5100476 526.347200
    503    512    521     1   107.9700462 569.024000
    506    518   1101     1   107.9700462 569.024000
    509    515   1072     1   107.9700462 569.024000
    515   1072   1044     1   112.4800480 524.673600
    518   1101   1073     1   112.4800480 524.673600
    522    523    535     1   111.0400475 552.288000
    522    526    538     1   111.0400475 552.288000
    522    529    532     1   111.0400475 552.288000
    523    522    526     1   112.3500484 533.878400
    523    522    529     1   112.3500484 533.878400
    523    535    547     1   111.5100476 526.347200
    526    522    529     1   112.3500484 533.878400
    526    538    544     1   111.5100476 526.347200
    529    532    541     1   111.5100476 526.347200
    532    541    550     1   107.9700462 569.024000
    535    547   1159     1   107.9700462 569.024000
    538    544   1130     1   107.9700462 569.024000
    544   1130   1102     1   112.4800480 524.673600
    547   1159   1131     1   112.4800480 524.673600
    551    552    564     1   111.0400475 552.288000
    551    555    567     1   111.0400475 552.288000
    551    558    561     1   111.0400475 552.288000
    552    551    555     1   112.3500484 533.878400
    552    551    558     1   112.3500484 533.878400
    552    564    576     1   111.5100476 526.347200
    555    551    558     1   112.3500484 533.878400
    555    567    573     1   111.5100476 526.347200
    558    561    570     1   111.5100476 526.347200
    561    570    579     1   107.9700462 569.024000
    564    576   1217     1   107.9700462 569.024000
    567    573   1188     1   107.9700462 569.024000
    573   1188   1160     1   112.4800480 524.673600
    576   1217   1189     1   112.4800480 524.673600
    580    581    593     1   111.0400475 552.288000
    580    584    596     1   111.0400475 552.288000
    580    587    590     1   111.0400475 552.288000
    581    580    584     1   112.3500484 533.878400
    581    580    587     1   112.3500484 533.878400
    581    593    605     1   111.5100476 526.347200
    584    580    587     1   112.3500484 533.878400
    584    596    602     1   111.5100476 526.347200
    587    590    599     1   111.5100476 526.347200
    590    599    608     1   107.9700462 569.024000
    593    605   1275     1   107.9700462 569.024000
    596    602   1246     1   107.9700462 569.024000
    602   1246   1218     1   112.4800480 524.673600
    605   1275   1247     1   112.4800480 524.673600
    609    610    622     1   111.0400475 552.288000
    609    613    625     1   111.0400475 552.288000
    609    616    619     1   111.0400475 552.288000
    610    609    613     1   112.3500484 533.878400
    610    609    616     1   112.3500484 533.878400
    610    622    634     1   111.5100476 526.347200
    613    609    616     1   112.3500484 533.878400
    613    625    631     1   111.5100476 526.347200
    616    619    628     1   111.5100476 526.347200
    619    628    637     1   107.9700462 569.024000
    622    634   1333     1   107.9700462 569.024000
    625    631   1304     1   107.9700462 569.024000
    631   1304   1276     1   112.4800480 524.673600
    634   1333   1305     1   112.4800480 524.673600
    638    641    644     1   111.5100476 526.347200
    641    638    666     1   107.9700462 569.024000
    641    644    647     1   111.0400475 552.288000
    644    647    648     1   112.3500484 533.878400
    644    647    657     1   112.3500484 533.878400
    647    648    651     1   111.0400475 552.288000
    647    657    660     1   111.0400475 552.288000
    648    647    657     1   112.3500484 533.878400
    648    651    654     1   111.0400475 529.694400
    651    654    655     1   123.2000528 564.003200
    651    654    656     1   123.2000528 564.003200
    655    654    656     1   130.2500561 651.867200
    657    660    663     1   111.0400475 529.694400
    660    663    664     1   123.2000528 564.003200
    660    663    665     1   123.2000528 564.003200
    664    663    665     1   130.2500561 651.867200
    667    670    673     1   111.5100476 526.347200
    670    673    676     1   111.0400475 552.288000
    670    667    695     1   107.9700462 569.024000
    673    676    677     1   112.3500484 533.878400
    673    676    686     1   112.3500484 533.878400
    676    677    680     1   111.0400475 552.288000
    676    686    689     1   111.0400475 552.288000
    677    680    683     1   111.0400475 529.694400
    677    676    686     1   112.3500484 533.878400
    680    683    684     1   123.2000528 564.003200
    680    683    685     1   123.2000528 564.003200
    684    683    685     1   130.2500561 651.867200
    686    689    692     1   111.0400475 529.694400
    689    692    693     1   123.2000528 564.003200
    689    692    694     1   123.2000528 564.003200
    693    692    694     1   130.2500561 651.867200
    696    699    702     1   111.5100476 526.347200
    699    696    724     1   107.9700462 569.024000
    699    702    705     1   111.0400475 552.288000
    702    705    706     1   112.3500484 533.878400
    702    705    715     1   112.3500484 533.878400
    705    706    709     1   111.0400475 552.288000
    705    715    718     1   111.0400475 552.288000
    706    705    715     1   112.3500484 533.878400
    706    709    712     1   111.0400475 529.694400
    709    712    713     1   123.2000528 564.003200
    709    712    714     1   123.2000528 564.003200
    713    712    714     1   130.2500561 651.867200
    715    718    721     1   111.0400475 529.694400
    718    721    722     1   123.2000528 564.003200
    718    721    723     1   123.2000528 564.003200
    722    721    723     1   130.2500561 651.867200
    725    728    731     1   111.5100476 526.347200
    728    731    734     1   111.0400475 552.288000
    728    725    753     1   107.9700462 569.024000
    731    734    735     1   112.3500484 533.878400
    731    734    744     1   112.3500484 533.878400
    734    735    738     1   111.0400475 552.288000
    734    744    747     1   111.0400475 552.288000
    735    738    741     1   111.0400475 529.694400
    735    734    744     1   112.3500484 533.878400
    738    741    742     1   123.2000528 564.003200
    738    741    743     1   123.2000528 564.003200
    742    741    743     1   130.2500561 651.867200
    744    747    750     1   111.0400475 529.694400
    747    750    751     1   123.2000528 564.003200
    747    750    752     1   123.2000528 564.003200
    751    750    752     1   130.2500561 651.867200
    754    757    760     1   111.5100476 526.347200
    757    754    782     1   107.9700462 569.024000
    757    760    763     1   111.0400475 552.288000
    760    763    764     1   112.3500484 533.878400
    760    763    773     1   112.3500484 533.878400
    763    764    767     1   111.0400475 552.288000
    763    773    776     1   111.0400475 552.288000
    764    763    773     1   112.3500484 533.878400
    764    767    770     1   111.0400475 529.694400
    767    770    771     1   123.2000528 564.003200
    767    770    772     1   123.2000528 564.003200
    771    770    772     1   130.2500561 651.867200
    773    776    779     1   111.0400475 529.694400
    776    779    780     1   123.2000528 564.003200
    776    779    781     1   123.2000528 564.003200
    780    779    781     1   130.2500561 651.867200
    783    786    789     1   111.5100476 526.347200
    786    789    792     1   111.0400475 552.288000
    786    783    811     1   107.9700462 569.024000
    789    792    793     1   112.3500484 533.878400
    789    792    802     1   112.3500484 533.878400
    792    793    796     1   111.0400475 552.288000
    792    802    805     1   111.0400475 552.288000
    793    796    799     1   111.0400475 529.694400
    793    792    802     1   112.3500484 533.878400
    796    799    800     1   123.2000528 564.003200
    796    799    801     1   123.2000528 564.003200
    800    799    801     1   130.2500561 651.867200
    802    805    808     1   111.0400475 529.694400
    805    808    809     1   123.2000528 564.003200
    805    808    810     1   123.2000528 564.003200
    809    808    810     1   130.2500561 651.867200
    812    815    818     1   111.5100476 526.347200
    815    812    840     1   107.9700462 569.024000
    815    818    821     1   111.0400475 552.288000
    818    821    822     1   112.3500484 533.878400
    818    821    831     1   112.3500484 533.878400
    821    822    825     1   111.0400475 552.288000
    821    831    834     1   111.0400475 552.288000
    822    821    831     1   112.3500484 533.878400
    822    825    828     1   111.0400475 529.694400
    825    828    829     1   123.2000528 564.003200
    825    828    830     1   123.2000528 564.003200
    829    828    830     1   130.2500561 651.867200
    831    834    837     1   111.0400475 529.694400
    834    837    838     1   123.2000528 564.003200
    834    837    839     1   123.2000528 564.003200
    838    837    839     1   130.2500561 651.867200
    841    844    847     1   111.5100476 526.347200
    844    847    850     1   111.0400475 552.288000
    844    841    869     1   107.9700462 569.024000
    847    850    851     1   112.3500484 533.878400
    847    850    860     1   112.3500484 533.878400
    850    851    854     1   111.0400475 552.288000
    850    860    863     1   111.0400475 552.288000
    851    854    857     1   111.0400475 529.694400
    851    850    860     1   112.3500484 533.878400
    854    857    858     1   123.2000528 564.003200
    854    857    859     1   123.2000528 564.003200
    858    857    859     1   130.2500561 651.867200
    860    863    866     1   111.0400475 529.694400
    863    866    867     1   123.2000528 564.003200
    863    866    868     1   123.2000528 564.003200
    867    866    868     1   130.2500561 651.867200
    870    873    876     1   111.5100476 526.347200
    873    870    898     1   107.9700462 569.024000
    873    876    879     1   111.0400475 552.288000
    876    879    880     1   112.3500484 533.878400
    876    879    889     1   112.3500484 533.878400
    879    880    883     1   111.0400475 552.288000
    879    889    892     1   111.0400475 552.288000
    880    879    889     1   112.3500484 533.878400
    880    883    886     1   111.0400475 529.694400
    883    886    887     1   123.2000528 564.003200
    883    886    888     1   123.2000528 564.003200
    887    886    888     1   130.2500561 651.867200
    889    892    895     1   111.0400475 529.694400
    892    895    896     1   123.2000528 564.003200
    892    895    897     1   123.2000528 564.003200
    896    895    897     1   130.2500561 651.867200
    899    902    905     1   111.5100476 526.347200
    902    905    908     1   111.0400475 552.288000
    902    899    927     1   107.9700462 569.024000
    905    908    909     1   112.3500484 533.878400
    905    908    918     1   112.3500484 533.878400
    908    909    912     1   111.0400475 552.288000
    908    918    921     1   111.0400475 552.288000
    909    912    915     1   111.0400475 529.694400
    909    908    918     1   112.3500484 533.878400
    912    915    916     1   123.2000528 564.003200
    912    915    917     1   123.2000528 564.003200
    916    915    917     1   130.2500561 651.867200
    918    921    924     1   111.0400475 529.694400
    921    924    925     1   123.2000528 564.003200
    921    924    926     1   123.2000528 564.003200
    925    924    926     1   130.2500561 651.867200
    928    931    934     1   111.5100476 526.347200
    931    928    956     1   107.9700462 569.024000
    931    934    937     1   111.0400475 552.288000
    934    937    938     1   112.3500484 533.878400
    934    937    947     1   112.3500484 533.878400
    937    938    941     1   111.0400475 552.288000
    937    947    950     1   111.0400475 552.288000
    938    937    947     1   112.3500484 533.878400
    938    941    944     1   111.0400475 529.694400
    941    944    945     1   123.2000528 564.003200
    941    944    946     1   123.2000528 564.003200
    945    944    946     1   130.2500561 651.867200
    947    950    953     1   111.0400475 529.694400
    950    953    954     1   123.2000528 564.003200
    950    953    955     1   123.2000528 564.003200
    954    953    955     1   130.2500561 651.867200
    957    960    963     1   111.5100476 526.347200
    960    963    966     1   111.0400475 552.288000
    960    957    985     1   107.9700462 569.024000
    963    966    967     1   112.3500484 533.878400
    963    966    976     1   112.3500484 533.878400
    966    967    970     1   111.0400475 552.288000
    966    976    979     1   111.0400475 552.288000
    967    970    973     1   111.0400475 529.694400
    967    966    976     1   112.3500484 533.878400
    970    973    974     1   123.2000528 564.003200
    970    973    975     1   123.2000528 564.003200
    974    973    975     1   130.2500561 651.867200
    976    979    982     1   111.0400475 529.694400
    979    982    983     1   123.2000528 564.003200
    979    982    984     1   123.2000528 564.003200
    983    982    984     1   130.2500561 651.867200
    986    989    992     1   111.5100476 526.347200
    989    986   1014     1   107.9700462 569.024000
    989    992    995     1   111.0400475 552.288000
    992    995    996     1   112.3500484 533.878400
    992    995   1005     1   112.3500484 533.878400
    995    996    999     1   111.0400475 552.288000
    995   1005   1008     1   111.0400475 552.288000
    996    995   1005     1   112.3500484 533.878400
    996    999   1002     1   111.0400475 529.694400
    999   1002   1003     1   123.2000528 564.003200
    999   1002   1004     1   123.2000528 564.003200
   1003   1002   1004     1   130.2500561 651.867200
   1005   1008   1011     1   111.0400475 529.694400
   1008   1011   1012     1   123.2000528 564.003200
   1008   1011   1013     1   123.2000528 564.003200
   1012   1011   1013     1   130.2500561 651.867200
   1015   1018   1021     1   111.5100476 526.347200
   1018   1021   1024     1   111.0400475 552.288000
   1018   1015   1043     1   107.9700462 569.024000
   1021   1024   1025     1   112.3500484 533.878400
   1021   1024   1034     1   112.3500484 533.878400
   1024   1025   1028     1   111.0400475 552.288000
   1024   1034   1037     1   111.0400475 552.288000
   1025   1028   1031     1   111.0400475 529.694400
   1025   1024   1034     1   112.3500484 533.878400
   1028   1031   1032     1   123.2000528 564.003200
   1028   1031   1033     1   123.2000528 564.003200
   1032   1031   1033     1   130.2500561 651.867200
   1034   1037   1040     1   111.0400475 529.694400
   1037   1040   1041     1   123.2000528 564.003200
   1037   1040   1042     1   123.2000528 564.003200
   1041   1040   1042     1   130.2500561 651.867200
   1044   1047   1050     1   111.5100476 526.347200
   1047   1044   1072     1   107.9700462 569.024000
   1047   1050   1053     1   111.0400475 552.288000
   1050   1053   1054     1   112.3500484 533.878400
   1050   1053   1063     1   112.3500484 533.878400
   1053   1054   1057     1   111.0400475 552.288000
   1053   1063   1066     1   111.0400475 552.288000
   1054   1053   1063     1   112.3500484 533.878400
   1054   1057   1060     1   111.0400475 529.694400
   1057   1060   1061     1   123.2000528 564.003200
   1057   1060   1062     1   123.2000528 564.003200
   1061   1060   1062     1   130.2500561 651.867200
   1063   1066   1069     1   111.0400475 529.694400
   1066   1069   1070     1   123.2000528 564.003200
   1066   1069   1071     1   123.2000528 564.003200
   1070   1069   1071     1   130.2500561 651.867200
   1073   1076   1079     1   111.5100476 526.347200
   1076   1079   1082     1   111.0400475 552.288000
   1076   1073   1101     1   107.9700462 569.024000
   1079   1082   1083     1   112.3500484 533.878400
   1079   1082   1092     1   112.3500484 533.878400
   1082   1083   1086     1   111.0400475 552.288000
   1082   1092   1095     1   111.0400475 552.288000
   1083   1086   1089     1   111.0400475 529.694400
   1083   1082   1092     1   112.3500484 533.878400
   1086   1089   1090     1   123.2000528 564.003200
   1086   1089   1091     1   123.2000528 564.003200
   1090   1089   1091     1   130.2500561 651.867200
   1092   1095   1098     1   111.0400475 529.694400
   1095   1098   1099     1   123.2000528 564.003200
   1095   1098   1100     1   123.2000528 564.003200
   1099   1098   1100     1   130.2500561 651.867200
   1102   1105   1108     1   111.5100476 526.347200
   1105   1102   1130     1   107.9700462 569.024000
   1105   1108   1111     1   111.0400475 552.288000
   1108   1111   1112     1   112.3500484 533.878400
   1108   1111   1121     1   112.3500484 533.878400
   1111   1112   1115     1   111.0400475 552.288000
   1111   1121   1124     1   111.0400475 552.288000
   1112   1111   1121     1   112.3500484 533.878400
   1112   1115   1118     1   111.0400475 529.694400
   1115   1118   1119     1   123.2000528 564.003200
   1115   1118   1120     1   123.2000528 564.003200
   1119   1118   1120     1   130.2500561 651.867200
   1121   1124   1127     1   111.0400475 529.694400
   1124   1127   1128     1   123.2000528 564.003200
   1124   1127   1129     1   123.2000528 564.003200
   1128   1127   1129     1   130.2500561 651.867200
   1131   1134   1137     1   111.5100476 526.347200
   1134   1137   1140     1   111.0400475 552.288000
   1134   1131   1159     1   107.9700462 569.024000
   1137   1140   1141     1   112.3500484 533.878400
   1137   1140   1150     1   112.3500484 533.878400
   1140   1141   1144     1   111.0400475 552.288000
   1140   1150   1153     1   111.0400475 552.288000
   1141   1144   1147     1   111.0400475 529.694400
   1141   1140   1150     1   112.3500484 533.878400
   1144   1147   1148     1   123.2000528 564.003200
   1144   1147   1149     1   123.2000528 564.003200
   1148   1147   1149     1   130.2500561 651.867200
   1150   1153   1156     1   111.0400475 529.694400
   1153   1156   1157     1   123.2000528 564.003200
   1153   1156   1158     1   123.2000528 564.003200
   1157   1156   1158     1   130.2500561 651.867200
   1160   1163   1166     1   111.5100476 526.347200
   1163   1160   1188     1   107.9700462 569.024000
   1163   1166   1169     1   111.0400475 552.288000
   1166   1169   1170     1   112.3500484 533.878400
   1166   1169   1179     1   112.3500484 533.878400
   1169   1170   1173     1   111.0400475 552.288000
   1169   1179   1182     1   111.0400475 552.288000
   1170   1169   1179     1   112.3500484 533.878400
   1170   1173   1176     1   111.0400475 529.694400
   1173   1176   1177     1   123.2000528 564.003200
   1173   1176   1178     1   123.2000528 564.003200
   1177   1176   1178     1   130.2500561 651.867200
   1179   1182   1185     1   111.0400475 529.694400
   1182   1185   1186     1   123.2000528 564.003200
   1182   1185   1187     1   123.2000528 564.003200
   1186   1185   1187     1   130.2500561 651.867200
   1189   1192   1195     1   111.5100476 526.347200
   1192   1195   1198     1   111.0400475 552.288000
   1192   1189   1217     1   107.9700462 569.024000
   1195   1198   1199     1   112.3500484 533.878400
   1195   1198   1208     1   112.3500484 533.878400
   1198   1199   1202     1   111.0400475 552.288000
   1198   1208   1211     1   111.0400475 552.288000
   1199   1202   1205     1   111.0400475 529.694400
   1199   1198   1208     1   112.3500484 533.878400
   1202   1205   1206     1   123.2000528 564.003200
   1202   1205   1207     1   123.2000528 564.003200
   1206   1205   1207     1   130.2500561 651.867200
   1208   1211   1214     1   111.0400475 529.694400
   1211   1214   1215     1   123.2000528 564.003200
   1211   1214   1216     1   123.2000528 564.003200
   1215   1214   1216     1   130.2500561 651.867200
   1218   1221   1224     1   111.5100476 526.347200
   1221   1218   1246     1   107.9700462 569.024000
   1221   1224   1227     1   111.0400475 552.288000
   1224   1227   1228     1   112.3500484 533.878400
   1224   1227   1237     1   112.3500484 533.878400
   1227   1228   1231     1   111.0400475 552.288000
   1227   1237   1240     1   111.0400475 552.288000
   1228   1227   1237     1   112.3500484 533.878400
   1228   1231   1234     1   111.0400475 529.694400
   1231   1234   1235     1   123.2000528 564.003200
   1231   1234   1236     1   123.2000528 564.003200
   1235   1234   1236     1   130.2500561 651.867200
   1237   1240   1243     1   111.0400475 529.694400
   1240   1243   1244     1   123.2000528 564.003200
   1240   1243   1245     1   123.2000528 564.003200
   1244   1243   1245     1   130.2500561 651.867200
   1247   1250   1253     1   111.5100476 526.347200
   1250   1253   1256     1   111.0400475 552.288000
   1250   1247   1275     1   107.9700462 569.024000
   1253   1256   1257     1   112.3500484 533.878400
   1253   1256   1266     1   112.3500484 533.878400
   1256   1257   1260     1   111.0400475 552.288000
   1256   1266   1269     1   111.0400475 552.288000
   1257   1260   1263     1   111.0400475 529.694400
   1257   1256   1266     1   112.3500484 533.878400
   1260   1263   1264     1   123.2000528 564.003200
   1260   1263   1265     1   123.2000528 564.003200
   1264   1263   1265     1   130.2500561 651.867200
   1266   1269   1272     1   111.0400475 529.694400
   1269   1272   1273     1   123.2000528 564.003200
   1269   1272   1274     1   123.2000528 564.003200
   1273   1272   1274     1   130.2500561 651.867200
   1276   1279   1282     1   111.5100476 526.347200
   1279   1276   1304     1   107.9700462 569.024000
   1279   1282   1285     1   111.0400475 552.288000
   1282   1285   1286     1   112.3500484 533.878400
   1282   1285   1295     1   112.3500484 533.878400
   1285   1286   1289     1   111.0400475 552.288000
   1285   1295   1298     1   111.0400475 552.288000
   1286   1285   1295     1   112.3500484 533.878400
   1286   1289   1292     1   111.0400475 529.694400
   1289   1292   1293     1   123.2000528 564.003200
   1289   1292   1294     1   123.2000528 564.003200
   1293   1292   1294     1   130.2500561 651.867200
   1295   1298   1301     1   111.0400475 529.694400
   1298   1301   1302     1   123.2000528 564.003200
   1298   1301   1303     1   123.2000528 564.003200
   1302   1301   1303     1   130.2500561 651.867200
   1305   1308   1311     1   111.5100476 526.347200
   1308   1311   1314     1   111.0400475 552.288000
   1308   1305   1333     1   107.9700462 569.024000
   1311   1314   1315     1   112.3500484 533.878400
   1311   1314   1324     1   112.3500484 533.878400
   1314   1315   1318     1   111.0400475 552.288000
   1314   1324   1327     1   111.0400475 552.288000
   1315   1318   1321     1   111.0400475 529.694400
   1315   1314   1324     1   112.3500484 533.878400
   1318   1321   1322     1   123.2000528 564.003200
   1318   1321   1323     1   123.2000528 564.003200
   1322   1321   1323     1   130.2500561 651.867200
   1324   1327   1330     1   111.0400475 529.694400
   1327   1330   1331     1   123.2000528 564.003200
   1327   1330   1332     1   123.2000528 564.003200
   1331   1330   1332     1   130.2500561 651.867200
      1      2      3     1   109.8800469 414.216000
      1      2      4     1   109.8800469 414.216000
      1      5      6     1   109.8800469 414.216000
      1      5      7     1   109.8800469 414.216000
      1      8      9     1   109.8800469 414.216000
      1      8     10     1   109.8800469 414.216000
      2     14     15     1   109.8000471 387.438400
      2     14     16     1   109.8000471 387.438400
      3      2     14     1   109.5600471 388.275200
      3      2      4     1   108.4600466 328.025600
      4      2     14     1   109.5600471 388.275200
      5     17     18     1   109.8000471 387.438400
      5     17     19     1   109.8000471 387.438400
      6      5     17     1   109.5600471 388.275200
      6      5      7     1   108.4600466 328.025600
      7      5     17     1   109.5600471 388.275200
      8     11     12     1   109.8000471 387.438400
      8     11     13     1   109.8000471 387.438400
      9      8     11     1   109.5600471 388.275200
      9      8     10     1   108.4600466 328.025600
     10      8     11     1   109.5600471 388.275200
     11     23     24     1   109.5600471 388.275200
     11     23     25     1   109.5600471 388.275200
     12     11     23     1   109.8000471 387.438400
     12     11     13     1   107.5800459 329.699200
     13     11     23     1   109.8000471 387.438400
     14     26     27     1   109.5600471 388.275200
     14     26     28     1   109.5600471 388.275200
     15     14     26     1   109.8000471 387.438400
     15     14     16     1   107.5800459 329.699200
     16     14     26     1   109.8000471 387.438400
     17     20     21     1   109.5600471 388.275200
     17     20     22     1   109.5600471 388.275200
     18     17     20     1   109.8000471 387.438400
     18     17     19     1   107.5800459 329.699200
     19     17     20     1   109.8000471 387.438400
     21     20     57     1   109.7800468 425.094400
     21     20     22     1   108.4600466 328.025600
     22     20     57     1   109.7800468 425.094400
     24     23     86     1   109.7800468 425.094400
     24     23     25     1   108.4600466 328.025600
     25     23     86     1   109.7800468 425.094400
     27     26    115     1   109.7800468 425.094400
     27     26     28     1   108.4600466 328.025600
     28     26    115     1   109.7800468 425.094400
     29     30     31     1   109.8800469 414.216000
     29     30     32     1   109.8800469 414.216000
     29     33     34     1   109.8800469 414.216000
     29     33     35     1   109.8800469 414.216000
     29     36     37     1   109.8800469 414.216000
     29     36     38     1   109.8800469 414.216000
     30     42     43     1   109.8000471 387.438400
     30     42     44     1   109.8000471 387.438400
     31     30     42     1   109.5600471 388.275200
     31     30     32     1   108.4600466 328.025600
     32     30     42     1   109.5600471 388.275200
     33     45     46     1   109.8000471 387.438400
     33     45     47     1   109.8000471 387.438400
     34     33     45     1   109.5600471 388.275200
     34     33     35     1   108.4600466 328.025600
     35     33     45     1   109.5600471 388.275200
     36     39     40     1   109.8000471 387.438400
     36     39     41     1   109.8000471 387.438400
     37     36     39     1   109.5600471 388.275200
     37     36     38     1   108.4600466 328.025600
     38     36     39     1   109.5600471 388.275200
     39     48     49     1   109.5600471 388.275200
     39     48     50     1   109.5600471 388.275200
     40     39     48     1   109.8000471 387.438400
     40     39     41     1   107.5800459 329.699200
     41     39     48     1   109.8000471 387.438400
     42     54     55     1   109.5600471 388.275200
     42     54     56     1   109.5600471 388.275200
     43     42     54     1   109.8000471 387.438400
     43     42     44     1   107.5800459 329.699200
     44     42     54     1   109.8000471 387.438400
     45     51     52     1   109.5600471 388.275200
     45     51     53     1   109.5600471 388.275200
     46     45     51     1   109.8000471 387.438400
     46     45     47     1   107.5800459 329.699200
     47     45     51     1   109.8000471 387.438400
     49     48     57     1   109.7800468 425.094400
     49     48     50     1   108.4600466 328.025600
     50     48     57     1   109.7800468 425.094400
     52     51    144     1   109.7800468 425.094400
     52     51     53     1   108.4600466 328.025600
     53     51    144     1   109.7800468 425.094400
     55     54    173     1   109.7800468 425.094400
     55     54     56     1   108.4600466 328.025600
     56     54    173     1   109.7800468 425.094400
     58     59     60     1   109.8800469 414.216000
     58     59     61     1   109.8800469 414.216000
     58     62     63     1   109.8800469 414.216000
     58     62     64     1   109.8800469 414.216000
     58     65     66     1   109.8800469 414.216000
     58     65     67     1   109.8800469 414.216000
     59     71     72     1   109.8000471 387.438400
     59     71     73     1   109.8000471 387.438400
     60     59     71     1   109.5600471 388.275200
     60     59     61     1   108.4600466 328.025600
     61     59     71     1   109.5600471 388.275200
     62     74     75     1   109.8000471 387.438400
     62     74     76     1   109.8000471 387.438400
     63     62     74     1   109.5600471 388.275200
     63     62     64     1   108.4600466 328.025600
     64     62     74     1   109.5600471 388.275200
     65     68     69     1   109.8000471 387.438400
     65     68     70     1   109.8000471 387.438400
     66     65     68     1   109.5600471 388.275200
     66     65     67     1   108.4600466 328.025600
     67     65     68     1   109.5600471 388.275200
     68     77     78     1   109.5600471 388.275200
     68     77     79     1   109.5600471 388.275200
     69     68     77     1   109.8000471 387.438400
     69     68     70     1   107.5800459 329.699200
     70     68     77     1   109.8000471 387.438400
     71     83     84     1   109.5600471 388.275200
     71     83     85     1   109.5600471 388.275200
     72     71     83     1   109.8000471 387.438400
     72     71     73     1   107.5800459 329.699200
     73     71     83     1   109.8000471 387.438400
     74     80     81     1   109.5600471 388.275200
     74     80     82     1   109.5600471 388.275200
     75     74     80     1   109.8000471 387.438400
     75     74     76     1   107.5800459 329.699200
     76     74     80     1   109.8000471 387.438400
     78     77     86     1   109.7800468 425.094400
     78     77     79     1   108.4600466 328.025600
     79     77     86     1   109.7800468 425.094400
     81     80    202     1   109.7800468 425.094400
     81     80     82     1   108.4600466 328.025600
     82     80    202     1   109.7800468 425.094400
     84     83    231     1   109.7800468 425.094400
     84     83     85     1   108.4600466 328.025600
     85     83    231     1   109.7800468 425.094400
     87     88     89     1   109.8800469 414.216000
     87     88     90     1   109.8800469 414.216000
     87     91     92     1   109.8800469 414.216000
     87     91     93     1   109.8800469 414.216000
     87     94     95     1   109.8800469 414.216000
     87     94     96     1   109.8800469 414.216000
     88    100    101     1   109.8000471 387.438400
     88    100    102     1   109.8000471 387.438400
     89     88    100     1   109.5600471 388.275200
     89     88     90     1   108.4600466 328.025600
     90     88    100     1   109.5600471 388.275200
     91    103    104     1   109.8000471 387.438400
     91    103    105     1   109.8000471 387.438400
     92     91    103     1   109.5600471 388.275200
     92     91     93     1   108.4600466 328.025600
     93     91    103     1   109.5600471 388.275200
     94     97     98     1   109.8000471 387.438400
     94     97     99     1   109.8000471 387.438400
     95     94     97     1   109.5600471 388.275200
     95     94     96     1   108.4600466 328.025600
     96     94     97     1   109.5600471 388.275200
     97    106    107     1   109.5600471 388.275200
     97    106    108     1   109.5600471 388.275200
     98     97    106     1   109.8000471 387.438400
     98     97     99     1   107.5800459 329.699200
     99     97    106     1   109.8000471 387.438400
    100    112    113     1   109.5600471 388.275200
    100    112    114     1   109.5600471 388.275200
    101    100    112     1   109.8000471 387.438400
    101    100    102     1   107.5800459 329.699200
    102    100    112     1   109.8000471 387.438400
    103    109    110     1   109.5600471 388.275200
    103    109    111     1   109.5600471 388.275200
    104    103    109     1   109.8000471 387.438400
    104    103    105     1   107.5800459 329.699200
    105    103    109     1   109.8000471 387.438400
    107    106    115     1   109.7800468 425.094400
    107    106    108     1   108.4600466 328.025600
    108    106    115     1   109.7800468 425.094400
    110    109    260     1   109.7800468 425.094400
    110    109    111     1   108.4600466 328.025600
    111    109    260     1   109.7800468 425.094400
    113    112    289     1   109.7800468 425.094400
    113    112    114     1   108.4600466 328.025600
    114    112    289     1   109.7800468 425.094400
    116    117    118     1   109.8800469 414.216000
    116    117    119     1   109.8800469 414.216000
    116    120    121     1   109.8800469 414.216000
    116    120    122     1   109.8800469 414.216000
    116    123    124     1   109.8800469 414.216000
    116    123    125     1   109.8800469 414.216000
    117    129    130     1   109.8000471 387.438400
    117    129    131     1   109.8000471 387.438400
    118    117    129     1   109.5600471 388.275200
    118    117    119     1   108.4600466 328.025600
    119    117    129     1   109.5600471 388.275200
    120    132    133     1   109.8000471 387.438400
    120    132    134     1   109.8000471 387.438400
    121    120    132     1   109.5600471 388.275200
    121    120    122     1   108.4600466 328.025600
    122    120    132     1   109.5600471 388.275200
    123    126    127     1   109.8000471 387.438400
    123    126    128     1   109.8000471 387.438400
    124    123    126     1   109.5600471 388.275200
    124    123    125     1   108.4600466 328.025600
    125    123    126     1   109.5600471 388.275200
    126    135    136     1   109.5600471 388.275200
    126    135    137     1   109.5600471 388.275200
    127    126    135     1   109.8000471 387.438400
    127    126    128     1   107.5800459 329.699200
    128    126    135     1   109.8000471 387.438400
    129    141    142     1   109.5600471 388.275200
    129    141    143     1   109.5600471 388.275200
    130    129    141     1   109.8000471 387.438400
    130    129    131     1   107.5800459 329.699200
    131    129    141     1   109.8000471 387.438400
    132    138    139     1   109.5600471 388.275200
    132    138    140     1   109.5600471 388.275200
    133    132    138     1   109.8000471 387.438400
    133    132    134     1   107.5800459 329.699200
    134    132    138     1   109.8000471 387.438400
    136    135    144     1   109.7800468 425.094400
    136    135    137     1   108.4600466 328.025600
    137    135    144     1   109.7800468 425.094400
    139    138    318     1   109.7800468 425.094400
    139    138    140     1   108.4600466 328.025600
    140    138    318     1   109.7800468 425.094400
    142    141    347     1   109.7800468 425.094400
    142    141    143     1   108.4600466 328.025600
    143    141    347     1   109.7800468 425.094400
    145    146    147     1   109.8800469 414.216000
    145    146    148     1   109.8800469 414.216000
    145    149    150     1   109.8800469 414.216000
    145    149    151     1   109.8800469 414.216000
    145    152    153     1   109.8800469 414.216000
    145    152    154     1   109.8800469 414.216000
    146    158    159     1   109.8000471 387.438400
    146    158    160     1   109.8000471 387.438400
    147    146    158     1   109.5600471 388.275200
    147    146    148     1   108.4600466 328.025600
    148    146    158     1   109.5600471 388.275200
    149    161    162     1   109.8000471 387.438400
    149    161    163     1   109.8000471 387.438400
    150    149    161     1   109.5600471 388.275200
    150    149    151     1   108.4600466 328.025600
    151    149    161     1   109.5600471 388.275200
    152    155    156     1   109.8000471 387.438400
    152    155    157     1   109.8000471 387.438400
    153    152    155     1   109.5600471 388.275200
    153    152    154     1   108.4600466 328.025600
    154    152    155     1   109.5600471 388.275200
    155    164    165     1   109.5600471 388.275200
    155    164    166     1   109.5600471 388.275200
    156    155    164     1   109.8000471 387.438400
    156    155    157     1   107.5800459 329.699200
    157    155    164     1   109.8000471 387.438400
    158    170    171     1   109.5600471 388.275200
    158    170    172     1   109.5600471 388.275200
    159    158    170     1   109.8000471 387.438400
    159    158    160     1   107.5800459 329.699200
    160    158    170     1   109.8000471 387.438400
    161    167    168     1   109.5600471 388.275200
    161    167    169     1   109.5600471 388.275200
    162    161    167     1   109.8000471 387.438400
    162    161    163     1   107.5800459 329.699200
    163    161    167     1   109.8000471 387.438400
    165    164    173     1   109.7800468 425.094400
    165    164    166     1   108.4600466 328.025600
    166    164    173     1   109.7800468 425.094400
    168    167    376     1   109.7800468 425.094400
    168    167    169     1   108.4600466 328.025600
    169    167    376     1   109.7800468 425.094400
    171    170    405     1   109.7800468 425.094400
    171    170    172     1   108.4600466 328.025600
    172    170    405     1   109.7800468 425.094400
    174    175    176     1   109.8800469 414.216000
    174    175    177     1   109.8800469 414.216000
    174    178    179     1   109.8800469 414.216000
    174    178    180     1   109.8800469 414.216000
    174    181    182     1   109.8800469 414.216000
    174    181    183     1   109.8800469 414.216000
    175    187    188     1   109.8000471 387.438400
    175    187    189     1   109.8000471 387.438400
    176    175    187     1   109.5600471 388.275200
    176    175    177     1   108.4600466 328.025600
    177    175    187     1   109.5600471 388.275200
    178    190    191     1   109.8000471 387.438400
    178    190    192     1   109.8000471 387.438400
    179    178    190     1   109.5600471 388.275200
    179    178    180     1   108.4600466 328.025600
    180    178    190     1   109.5600471 388.275200
    181    184    185     1   109.8000471 387.438400
    181    184    186     1   109.8000471 387.438400
    182    181    184     1   109.5600471 388.275200
    182    181    183     1   108.4600466 328.025600
    183    181    184     1   109.5600471 388.275200
    184    193    194     1   109.5600471 388.275200
    184    193    195     1   109.5600471 388.275200
    185    184    193     1   109.8000471 387.438400
    185    184    186     1   107.5800459 329.699200
    186    184    193     1   109.8000471 387.438400
    187    199    200     1   109.5600471 388.275200
    187    199    201     1   109.5600471 388.275200
    188    187    199     1   109.8000471 387.438400
    188    187    189     1   107.5800459 329.699200
    189    187    199     1   109.8000471 387.438400
    190    196    197     1   109.5600471 388.275200
    190    196    198     1   109.5600471 388.275200
    191    190    196     1   109.8000471 387.438400
    191    190    192     1   107.5800459 329.699200
    192    190    196     1   109.8000471 387.438400
    194    193    202     1   109.7800468 425.094400
    194    193    195     1   108.4600466 328.025600
    195    193    202     1   109.7800468 425.094400
    197    196    434     1   109.7800468 425.094400
    197    196    198     1   108.4600466 328.025600
    198    196    434     1   109.7800468 425.094400
    200    199    463     1   109.7800468 425.094400
    200    199    201     1   108.4600466 328.025600
    201    199    463     1   109.7800468 425.094400
    203    204    205     1   109.8800469 414.216000
    203    204    206     1   109.8800469 414.216000
    203    207    208     1   109.8800469 414.216000
    203    207    209     1   109.8800469 414.216000
    203    210    211     1   109.8800469 414.216000
    203    210    212     1   109.8800469 414.216000
    204    216    217     1   109.8000471 387.438400
    204    216    218     1   109.8000471 387.438400
    205    204    216     1   109.5600471 388.275200
    205    204    206     1   108.4600466 328.025600
    206    204    216     1   109.5600471 388.275200
    207    219    220     1   109.8000471 387.438400
    207    219    221     1   109.8000471 387.438400
    208    207    219     1   109.5600471 388.275200
    208    207    209     1   108.4600466 328.025600
    209    207    219     1   109.5600471 388.275200
    210    213    214     1   109.8000471 387.438400
    210    213    215     1   109.8000471 387.438400
    211    210    213     1   109.5600471 388.275200
    211    210    212     1   108.4600466 328.025600
    212    210    213     1   109.5600471 388.275200
    213    222    223     1   109.5600471 388.275200
    213    222    224     1   109.5600471 388.275200
    214    213    222     1   109.8000471 387.438400
    214    213    215     1   107.5800459 329.699200
    215    213    222     1   109.8000471 387.438400
    216    228    229     1   109.5600471 388.275200
    216    228    230     1   109.5600471 388.275200
    217    216    228     1   109.8000471 387.438400
    217    216    218     1   107.5800459 329.699200
    218    216    228     1   109.8000471 387.438400
    219    225    226     1   109.5600471 388.275200
    219    225    227     1   109.5600471 388.275200
    220    219    225     1   109.8000471 387.438400
    220    219    221     1   107.5800459 329.699200
    221    219    225     1   109.8000471 387.438400
    223    222    231     1   109.7800468 425.094400
    223    222    224     1   108.4600466 328.025600
    224    222    231     1   109.7800468 425.094400
    226    225    492     1   109.7800468 425.094400
    226    225    227     1   108.4600466 328.025600
    227    225    492     1   109.7800468 425.094400
    229    228    521     1   109.7800468 425.094400
    229    228    230     1   108.4600466 328.025600
    230    228    521     1   109.7800468 425.094400
    232    233    234     1   109.8800469 414.216000
    232    233    235     1   109.8800469 414.216000
    232    236    237     1   109.8800469 414.216000
    232    236    238     1   109.8800469 414.216000
    232    239    240     1   109.8800469 414.216000
    232    239    241     1   109.8800469 414.216000
    233    245    246     1   109.8000471 387.438400
    233    245    247     1   109.8000471 387.438400
    234    233    245     1   109.5600471 388.275200
    234    233    235     1   108.4600466 328.025600
    235    233    245     1   109.5600471 388.275200
    236    248    249     1   109.8000471 387.438400
    236    248    250     1   109.8000471 387.438400
    237    236    248     1   109.5600471 388.275200
    237    236    238     1   108.4600466 328.025600
    238    236    248     1   109.5600471 388.275200
    239    242    243     1   109.8000471 387.438400
    239    242    244     1   109.8000471 387.438400
    240    239    242     1   109.5600471 388.275200
    240    239    241     1   108.4600466 328.025600
    241    239    242     1   109.5600471 388.275200
    242    251    252     1   109.5600471 388.275200
    242    251    253     1   109.5600471 388.275200
    243    242    251     1   109.8000471 387.438400
    243    242    244     1   107.5800459 329.699200
    244    242    251     1   109.8000471 387.438400
    245    257    258     1   109.5600471 388.275200
    245    257    259     1   109.5600471 388.275200
    246    245    257     1   109.8000471 387.438400
    246    245    247     1   107.5800459 329.699200
    247    245    257     1   109.8000471 387.438400
    248    254    255     1   109.5600471 388.275200
    248    254    256     1   109.5600471 388.275200
    249    248    254     1   109.8000471 387.438400
    249    248    250     1   107.5800459 329.699200
    250    248    254     1   109.8000471 387.438400
    252    251    260     1   109.7800468 425.094400
    252    251    253     1   108.4600466 328.025600
    253    251    260     1   109.7800468 425.094400
    255    254    550     1   109.7800468 425.094400
    255    254    256     1   108.4600466 328.025600
    256    254    550     1   109.7800468 425.094400
    258    257    579     1   109.7800468 425.094400
    258    257    259     1   108.4600466 328.025600
    259    257    579     1   109.7800468 425.094400
    261    262    263     1   109.8800469 414.216000
    261    262    264     1   109.8800469 414.216000
    261    265    266     1   109.8800469 414.216000
    261    265    267     1   109.8800469 414.216000
    261    268    269     1   109.8800469 414.216000
    261    268    270     1   109.8800469 414.216000
    262    274    275     1   109.8000471 387.438400
    262    274    276     1   109.8000471 387.438400
    263    262    274     1   109.5600471 388.275200
    263    262    264     1   108.4600466 328.025600
    264    262    274     1   109.5600471 388.275200
    265    277    278     1   109.8000471 387.438400
    265    277    279     1   109.8000471 387.438400
    266    265    277     1   109.5600471 388.275200
    266    265    267     1   108.4600466 328.025600
    267    265    277     1   109.5600471 388.275200
    268    271    272     1   109.8000471 387.438400
    268    271    273     1   109.8000471 387.438400
    269    268    271     1   109.5600471 388.275200
    269    268    270     1   108.4600466 328.025600
    270    268    271     1   109.5600471 388.275200
    271    280    281     1   109.5600471 388.275200
    271    280    282     1   109.5600471 388.275200
    272    271    280     1   109.8000471 387.438400
    272    271    273     1   107.5800459 329.699200
    273    271    280     1   109.8000471 387.438400
    274    286    287     1   109.5600471 388.275200
    274    286    288     1   109.5600471 388.275200
    275    274    286     1   109.8000471 387.438400
    275    274    276     1   107.5800459 329.699200
    276    274    286     1   109.8000471 387.438400
    277    283    284     1   109.5600471 388.275200
    277    283    285     1   109.5600471 388.275200
    278    277    283     1   109.8000471 387.438400
    278    277    279     1   107.5800459 329.699200
    279    277    283     1   109.8000471 387.438400
    281    280    289     1   109.7800468 425.094400
    281    280    282     1   108.4600466 328.025600
    282    280    289     1   109.7800468 425.094400
    284    283    608     1   109.7800468 425.094400
    284    283    285     1   108.4600466 328.025600
    285    283    608     1   109.7800468 425.094400
    287    286    637     1   109.7800468 425.094400
    287    286    288     1   108.4600466 328.025600
    288    286    637     1   109.7800468 425.094400
    290    291    292     1   109.8800469 414.216000
    290    291    293     1   109.8800469 414.216000
    290    294    295     1   109.8800469 414.216000
    290    294    296     1   109.8800469 414.216000
    290    297    298     1   109.8800469 414.216000
    290    297    299     1   109.8800469 414.216000
    291    303    304     1   109.8000471 387.438400
    291    303    305     1   109.8000471 387.438400
    292    291    303     1   109.5600471 388.275200
    292    291    293     1   108.4600466 328.025600
    293    291    303     1   109.5600471 388.275200
    294    306    307     1   109.8000471 387.438400
    294    306    308     1   109.8000471 387.438400
    295    294    306     1   109.5600471 388.275200
    295    294    296     1   108.4600466 328.025600
    296    294    306     1   109.5600471 388.275200
    297    300    301     1   109.8000471 387.438400
    297    300    302     1   109.8000471 387.438400
    298    297    300     1   109.5600471 388.275200
    298    297    299     1   108.4600466 328.025600
    299    297    300     1   109.5600471 388.275200
    300    309    310     1   109.5600471 388.275200
    300    309    311     1   109.5600471 388.275200
    301    300    309     1   109.8000471 387.438400
    301    300    302     1   107.5800459 329.699200
    302    300    309     1   109.8000471 387.438400
    303    315    316     1   109.5600471 388.275200
    303    315    317     1   109.5600471 388.275200
    304    303    315     1   109.8000471 387.438400
    304    303    305     1   107.5800459 329.699200
    305    303    315     1   109.8000471 387.438400
    306    312    313     1   109.5600471 388.275200
    306    312    314     1   109.5600471 388.275200
    307    306    312     1   109.8000471 387.438400
    307    306    308     1   107.5800459 329.699200
    308    306    312     1   109.8000471 387.438400
    310    309    318     1   109.7800468 425.094400
    310    309    311     1   108.4600466 328.025600
    311    309    318     1   109.7800468 425.094400
    313    312    666     1   109.7800468 425.094400
    313    312    314     1   108.4600466 328.025600
    314    312    666     1   109.7800468 425.094400
    316    315    695     1   109.7800468 425.094400
    316    315    317     1   108.4600466 328.025600
    317    315    695     1   109.7800468 425.094400
    319    320    321     1   109.8800469 414.216000
    319    320    322     1   109.8800469 414.216000
    319    323    324     1   109.8800469 414.216000
    319    323    325     1   109.8800469 414.216000
    319    326    327     1   109.8800469 414.216000
    319    326    328     1   109.8800469 414.216000
    320    332    333     1   109.8000471 387.438400
    320    332    334     1   109.8000471 387.438400
    321    320    332     1   109.5600471 388.275200
    321    320    322     1   108.4600466 328.025600
    322    320    332     1   109.5600471 388.275200
    323    335    336     1   109.8000471 387.438400
    323    335    337     1   109.8000471 387.438400
    324    323    335     1   109.5600471 388.275200
    324    323    325     1   108.4600466 328.025600
    325    323    335     1   109.5600471 388.275200
    326    329    330     1   109.8000471 387.438400
    326    329    331     1   109.8000471 387.438400
    327    326    329     1   109.5600471 388.275200
    327    326    328     1   108.4600466 328.025600
    328    326    329     1   109.5600471 388.275200
    329    338    339     1   109.5600471 388.275200
    329    338    340     1   109.5600471 388.275200
    330    329    338     1   109.8000471 387.438400
    330    329    331     1   107.5800459 329.699200
    331    329    338     1   109.8000471 387.438400
    332    344    345     1   109.5600471 388.275200
    332    344    346     1   109.5600471 388.275200
    333    332    344     1   109.8000471 387.438400
    333    332    334     1   107.5800459 329.699200
    334    332    344     1   109.8000471 387.438400
    335    341    342     1   109.5600471 388.275200
    335    341    343     1   109.5600471 388.275200
    336    335    341     1   109.8000471 387.438400
    336    335    337     1   107.5800459 329.699200
    337    335    341     1   109.8000471 387.438400
    339    338    347     1   109.7800468 425.094400
    339    338    340     1   108.4600466 328.025600
    340    338    347     1   109.7800468 425.094400
    342    341    724     1   109.7800468 425.094400
    342    341    343     1   108.4600466 328.025600
    343    341    724     1   109.7800468 425.094400
    345    344    753     1   109.7800468 425.094400
    345    344    346     1   108.4600466 328.025600
    346    344    753     1   109.7800468 425.094400
    348    349    350     1   109.8800469 414.216000
    348    349    351     1   109.8800469 414.216000
    348    352    353     1   109.8800469 414.216000
    348    352    354     1   109.8800469 414.216000
    348    355    356     1   109.8800469 414.216000
    348    355    357     1   109.8800469 414.216000
    349    361    362     1   109.8000471 387.438400
    349    361    363     1   109.8000471 387.438400
    350    349    361     1   109.5600471 388.275200
    350    349    351     1   108.4600466 328.025600
    351    349    361     1   109.5600471 388.275200
    352    364    365     1   109.8000471 387.438400
    352    364    366     1   109.8000471 387.438400
    353    352    364     1   109.5600471 388.275200
    353    352    354     1   108.4600466 328.025600
    354    352    364     1   109.5600471 388.275200
    355    358    359     1   109.8000471 387.438400
    355    358    360     1   109.8000471 387.438400
    356    355    358     1   109.5600471 388.275200
    356    355    357     1   108.4600466 328.025600
    357    355    358     1   109.5600471 388.275200
    358    367    368     1   109.5600471 388.275200
    358    367    369     1   109.5600471 388.275200
    359    358    367     1   109.8000471 387.438400
    359    358    360     1   107.5800459 329.699200
    360    358    367     1   109.8000471 387.438400
    361    373    374     1   109.5600471 388.275200
    361    373    375     1   109.5600471 388.275200
    362    361    373     1   109.8000471 387.438400
    362    361    363     1   107.5800459 329.699200
    363    361    373     1   109.8000471 387.438400
    364    370    371     1   109.5600471 388.275200
    364    370    372     1   109.5600471 388.275200
    365    364    370     1   109.8000471 387.438400
    365    364    366     1   107.5800459 329.699200
    366    364    370     1   109.8000471 387.438400
    368    367    376     1   109.7800468 425.094400
    368    367    369     1   108.4600466 328.025600
    369    367    376     1   109.7800468 425.094400
    371    370    782     1   109.7800468 425.094400
    371    370    372     1   108.4600466 328.025600
    372    370    782     1   109.7800468 425.094400
    374    373    811     1   109.7800468 425.094400
    374    373    375     1   108.4600466 328.025600
    375    373    811     1   109.7800468 425.094400
    377    378    379     1   109.8800469 414.216000
    377    378    380     1   109.8800469 414.216000
    377    381    382     1   109.8800469 414.216000
    377    381    383     1   109.8800469 414.216000
    377    384    385     1   109.8800469 414.216000
    377    384    386     1   109.8800469 414.216000
    378    390    391     1   109.8000471 387.438400
    378    390    392     1   109.8000471 387.438400
    379    378    390     1   109.5600471 388.275200
    379    378    380     1   108.4600466 328.025600
    380    378    390     1   109.5600471 388.275200
    381    393    394     1   109.8000471 387.438400
    381    393    395     1   109.8000471 387.438400
    382    381    393     1   109.5600471 388.275200
    382    381    383     1   108.4600466 328.025600
    383    381    393     1   109.5600471 388.275200
    384    387    388     1   109.8000471 387.438400
    384    387    389     1   109.8000471 387.438400
    385    384    387     1   109.5600471 388.275200
    385    384    386     1   108.4600466 328.025600
    386    384    387     1   109.5600471 388.275200
    387    396    397     1   109.5600471 388.275200
    387    396    398     1   109.5600471 388.275200
    388    387    396     1   109.8000471 387.438400
    388    387    389     1   107.5800459 329.699200
    389    387    396     1   109.8000471 387.438400
    390    402    403     1   109.5600471 388.275200
    390    402    404     1   109.5600471 388.275200
    391    390    402     1   109.8000471 387.438400
    391    390    392     1   107.5800459 329.699200
    392    390    402     1   109.8000471 387.438400
    393    399    400     1   109.5600471 388.275200
    393    399    401     1   109.5600471 388.275200
    394    393    399     1   109.8000471 387.438400
    394    393    395     1   107.5800459 329.699200
    395    393    399     1   109.8000471 387.438400
    397    396    405     1   109.7800468 425.094400
    397    396    398     1   108.4600466 328.025600
    398    396    405     1   109.7800468 425.094400
    400    399    840     1   109.7800468 425.094400
    400    399    401     1   108.4600466 328.025600
    401    399    840     1   109.7800468 425.094400
    403    402    869     1   109.7800468 425.094400
    403    402    404     1   108.4600466 328.025600
    404    402    869     1   109.7800468 425.094400
    406    407    408     1   109.8800469 414.216000
    406    407    409     1   109.8800469 414.216000
    406    410    411     1   109.8800469 414.216000
    406    410    412     1   109.8800469 414.216000
    406    413    414     1   109.8800469 414.216000
    406    413    415     1   109.8800469 414.216000
    407    419    420     1   109.8000471 387.438400
    407    419    421     1   109.8000471 387.438400
    408    407    419     1   109.5600471 388.275200
    408    407    409     1   108.4600466 328.025600
    409    407    419     1   109.5600471 388.275200
    410    422    423     1   109.8000471 387.438400
    410    422    424     1   109.8000471 387.438400
    411    410    422     1   109.5600471 388.275200
    411    410    412     1   108.4600466 328.025600
    412    410    422     1   109.5600471 388.275200
    413    416    417     1   109.8000471 387.438400
    413    416    418     1   109.8000471 387.438400
    414    413    416     1   109.5600471 388.275200
    414    413    415     1   108.4600466 328.025600
    415    413    416     1   109.5600471 388.275200
    416    425    426     1   109.5600471 388.275200
    416    425    427     1   109.5600471 388.275200
    417    416    425     1   109.8000471 387.438400
    417    416    418     1   107.5800459 329.699200
    418    416    425     1   109.8000471 387.438400
    419    431    432     1   109.5600471 388.275200
    419    431    433     1   109.5600471 388.275200
    420    419    431     1   109.8000471 387.438400
    420    419    421     1   107.5800459 329.699200
    421    419    431     1   109.8000471 387.438400
    422    428    429     1   109.5600471 388.275200
    422    428    430     1   109.5600471 388.275200
    423    422    428     1   109.8000471 387.438400
    423    422    424     1   107.5800459 329.699200
    424    422    428     1   109.8000471 387.438400
    426    425    434     1   109.7800468 425.094400
    426    425    427     1   108.4600466 328.025600
    427    425    434     1   109.7800468 425.094400
    429    428    898     1   109.7800468 425.094400
    429    428    430     1   108.4600466 328.025600
    430    428    898     1   109.7800468 425.094400
    432    431    927     1   109.7800468 425.094400
    432    431    433     1   108.4600466 328.025600
    433    431    927     1   109.7800468 425.094400
    435    436    437     1   109.8800469 414.216000
    435    436    438     1   109.8800469 414.216000
    435    439    440     1   109.8800469 414.216000
    435    439    441     1   109.8800469 414.216000
    435    442    443     1   109.8800469 414.216000
    435    442    444     1   109.8800469 414.216000
    436    448    449     1   109.8000471 387.438400
    436    448    450     1   109.8000471 387.438400
    437    436    448     1   109.5600471 388.275200
    437    436    438     1   108.4600466 328.025600
    438    436    448     1   109.5600471 388.275200
    439    451    452     1   109.8000471 387.438400
    439    451    453     1   109.8000471 387.438400
    440    439    451     1   109.5600471 388.275200
    440    439    441     1   108.4600466 328.025600
    441    439    451     1   109.5600471 388.275200
    442    445    446     1   109.8000471 387.438400
    442    445    447     1   109.8000471 387.438400
    443    442    445     1   109.5600471 388.275200
    443    442    444     1   108.4600466 328.025600
    444    442    445     1   109.5600471 388.275200
    445    454    455     1   109.5600471 388.275200
    445    454    456     1   109.5600471 388.275200
    446    445    454     1   109.8000471 387.438400
    446    445    447     1   107.5800459 329.699200
    447    445    454     1   109.8000471 387.438400
    448    460    461     1   109.5600471 388.275200
    448    460    462     1   109.5600471 388.275200
    449    448    460     1   109.8000471 387.438400
    449    448    450     1   107.5800459 329.699200
    450    448    460     1   109.8000471 387.438400
    451    457    458     1   109.5600471 388.275200
    451    457    459     1   109.5600471 388.275200
    452    451    457     1   109.8000471 387.438400
    452    451    453     1   107.5800459 329.699200
    453    451    457     1   109.8000471 387.438400
    455    454    463     1   109.7800468 425.094400
    455    454    456     1   108.4600466 328.025600
    456    454    463     1   109.7800468 425.094400
    458    457    956     1   109.7800468 425.094400
    458    457    459     1   108.4600466 328.025600
    459    457    956     1   109.7800468 425.094400
    461    460    985     1   109.7800468 425.094400
    461    460    462     1   108.4600466 328.025600
    462    460    985     1   109.7800468 425.094400
    464    465    466     1   109.8800469 414.216000
    464    465    467     1   109.8800469 414.216000
    464    468    469     1   109.8800469 414.216000
    464    468    470     1   109.8800469 414.216000
    464    471    472     1   109.8800469 414.216000
    464    471    473     1   109.8800469 414.216000
    465    477    478     1   109.8000471 387.438400
    465    477    479     1   109.8000471 387.438400
    466    465    477     1   109.5600471 388.275200
    466    465    467     1   108.4600466 328.025600
    467    465    477     1   109.5600471 388.275200
    468    480    481     1   109.8000471 387.438400
    468    480    482     1   109.8000471 387.438400
    469    468    480     1   109.5600471 388.275200
    469    468    470     1   108.4600466 328.025600
    470    468    480     1   109.5600471 388.275200
    471    474    475     1   109.8000471 387.438400
    471    474    476     1   109.8000471 387.438400
    472    471    474     1   109.5600471 388.275200
    472    471    473     1   108.4600466 328.025600
    473    471    474     1   109.5600471 388.275200
    474    483    484     1   109.5600471 388.275200
    474    483    485     1   109.5600471 388.275200
    475    474    483     1   109.8000471 387.438400
    475    474    476     1   107.5800459 329.699200
    476    474    483     1   109.8000471 387.438400
    477    489    490     1   109.5600471 388.275200
    477    489    491     1   109.5600471 388.275200
    478    477    489     1   109.8000471 387.438400
    478    477    479     1   107.5800459 329.699200
    479    477    489     1   109.8000471 387.438400
    480    486    487     1   109.5600471 388.275200
    480    486    488     1   109.5600471 388.275200
    481    480    486     1   109.8000471 387.438400
    481    480    482     1   107.5800459 329.699200
    482    480    486     1   109.8000471 387.438400
    484    483    492     1   109.7800468 425.094400
    484    483    485     1   108.4600466 328.025600
    485    483    492     1   109.7800468 425.094400
    487    486   1014     1   109.7800468 425.094400
    487    486    488     1   108.4600466 328.025600
    488    486   1014     1   109.7800468 425.094400
    490    489   1043     1   109.7800468 425.094400
    490    489    491     1   108.4600466 328.025600
    491    489   1043     1   109.7800468 425.094400
    493    494    495     1   109.8800469 414.216000
    493    494    496     1   109.8800469 414.216000
    493    497    498     1   109.8800469 414.216000
    493    497    499     1   109.8800469 414.216000
    493    500    501     1   109.8800469 414.216000
    493    500    502     1   109.8800469 414.216000
    494    506    507     1   109.8000471 387.438400
    494    506    508     1   109.8000471 387.438400
    495    494    506     1   109.5600471 388.275200
    495    494    496     1   108.4600466 328.025600
    496    494    506     1   109.5600471 388.275200
    497    509    510     1   109.8000471 387.438400
    497    509    511     1   109.8000471 387.438400
    498    497    509     1   109.5600471 388.275200
    498    497    499     1   108.4600466 328.025600
    499    497    509     1   109.5600471 388.275200
    500    503    504     1   109.8000471 387.438400
    500    503    505     1   109.8000471 387.438400
    501    500    503     1   109.5600471 388.275200
    501    500    502     1   108.4600466 328.025600
    502    500    503     1   109.5600471 388.275200
    503    512    513     1   109.5600471 388.275200
    503    512    514     1   109.5600471 388.275200
    504    503    512     1   109.8000471 387.438400
    504    503    505     1   107.5800459 329.699200
    505    503    512     1   109.8000471 387.438400
    506    518    519     1   109.5600471 388.275200
    506    518    520     1   109.5600471 388.275200
    507    506    518     1   109.8000471 387.438400
    507    506    508     1   107.5800459 329.699200
    508    506    518     1   109.8000471 387.438400
    509    515    516     1   109.5600471 388.275200
    509    515    517     1   109.5600471 388.275200
    510    509    515     1   109.8000471 387.438400
    510    509    511     1   107.5800459 329.699200
    511    509    515     1   109.8000471 387.438400
    513    512    521     1   109.7800468 425.094400
    513    512    514     1   108.4600466 328.025600
    514    512    521     1   109.7800468 425.094400
    516    515   1072     1   109.7800468 425.094400
    516    515    517     1   108.4600466 328.025600
    517    515   1072     1   109.7800468 425.094400
    519    518   1101     1   109.7800468 425.094400
    519    518    520     1   108.4600466 328.025600
    520    518   1101     1   109.7800468 425.094400
    522    523    524     1   109.8800469 414.216000
    522    523    525     1   109.8800469 414.216000
    522    526    527     1   109.8800469 414.216000
    522    526    528     1   109.8800469 414.216000
    522    529    530     1   109.8800469 414.216000
    522    529    531     1   109.8800469 414.216000
    523    535    536     1   109.8000471 387.438400
    523    535    537     1   109.8000471 387.438400
    524    523    535     1   109.5600471 388.275200
    524    523    525     1   108.4600466 328.025600
    525    523    535     1   109.5600471 388.275200
    526    538    539     1   109.8000471 387.438400
    526    538    540     1   109.8000471 387.438400
    527    526    538     1   109.5600471 388.275200
    527    526    528     1   108.4600466 328.025600
    528    526    538     1   109.5600471 388.275200
    529    532    533     1   109.8000471 387.438400
    529    532    534     1   109.8000471 387.438400
    530    529    532     1   109.5600471 388.275200
    530    529    531     1   108.4600466 328.025600
    531    529    532     1   109.5600471 388.275200
    532    541    542     1   109.5600471 388.275200
    532    541    543     1   109.5600471 388.275200
    533    532    541     1   109.8000471 387.438400
    533    532    534     1   107.5800459 329.699200
    534    532    541     1   109.8000471 387.438400
    535    547    548     1   109.5600471 388.275200
    535    547    549     1   109.5600471 388.275200
    536    535    547     1   109.8000471 387.438400
    536    535    537     1   107.5800459 329.699200
    537    535    547     1   109.8000471 387.438400
    538    544    545     1   109.5600471 388.275200
    538    544    546     1   109.5600471 388.275200
    539    538    544     1   109.8000471 387.438400
    539    538    540     1   107.5800459 329.699200
    540    538    544     1   109.8000471 387.438400
    542    541    550     1   109.7800468 425.094400
    542    541    543     1   108.4600466 328.025600
    543    541    550     1   109.7800468 425.094400
    545    544   1130     1   109.7800468 425.094400
    545    544    546     1   108.4600466 328.025600
    546    544   1130     1   109.7800468 425.094400
    548    547   1159     1   109.7800468 425.094400
    548    547    549     1   108.4600466 328.025600
    549    547   1159     1   109.7800468 425.094400
    551    552    553     1   109.8800469 414.216000
    551    552    554     1   109.8800469 414.216000
    551    555    556     1   109.8800469 414.216000
    551    555    557     1   109.8800469 414.216000
    551    558    559     1   109.8800469 414.216000
    551    558    560     1   109.8800469 414.216000
    552    564    565     1   109.8000471 387.438400
    552    564    566     1   109.8000471 387.438400
    553    552    564     1   109.5600471 388.275200
    553    552    554     1   108.4600466 328.025600
    554    552    564     1   109.5600471 388.275200
    555    567    568     1   109.8000471 387.438400
    555    567    569     1   109.8000471 387.438400
    556    555    567     1   109.5600471 388.275200
    556    555    557     1   108.4600466 328.025600
    557    555    567     1   109.5600471 388.275200
    558    561    562     1   109.8000471 387.438400
    558    561    563     1   109.8000471 387.438400
    559    558    561     1   109.5600471 388.275200
    559    558    560     1   108.4600466 328.025600
    560    558    561     1   109.5600471 388.275200
    561    570    571     1   109.5600471 388.275200
    561    570    572     1   109.5600471 388.275200
    562    561    570     1   109.8000471 387.438400
    562    561    563     1   107.5800459 329.699200
    563    561    570     1   109.8000471 387.438400
    564    576    577     1   109.5600471 388.275200
    564    576    578     1   109.5600471 388.275200
    565    564    576     1   109.8000471 387.438400
    565    564    566     1   107.5800459 329.699200
    566    564    576     1   109.8000471 387.438400
    567    573    574     1   109.5600471 388.275200
    567    573    575     1   109.5600471 388.275200
    568    567    573     1   109.8000471 387.438400
    568    567    569     1   107.5800459 329.699200
    569    567    573     1   109.8000471 387.438400
    571    570    579     1   109.7800468 425.094400
    571    570    572     1   108.4600466 328.025600
    572    570    579     1   109.7800468 425.094400
    574    573   1188     1   109.7800468 425.094400
    574    573    575     1   108.4600466 328.025600
    575    573   1188     1   109.7800468 425.094400
    577    576   1217     1   109.7800468 425.094400
    577    576    578     1   108.4600466 328.025600
    578    576   1217     1   109.7800468 425.094400
    580    581    582     1   109.8800469 414.216000
    580    581    583     1   109.8800469 414.216000
    580    584    585     1   109.8800469 414.216000
    580    584    586     1   109.8800469 414.216000
    580    587    588     1   109.8800469 414.216000
    580    587    589     1   109.8800469 414.216000
    581    593    594     1   109.8000471 387.438400
    581    593    595     1   109.8000471 387.438400
    582    581    593     1   109.5600471 388.275200
    582    581    583     1   108.4600466 328.025600
    583    581    593     1   109.5600471 388.275200
    584    596    597     1   109.8000471 387.438400
    584    596    598     1   109.8000471 387.438400
    585    584    596     1   109.5600471 388.275200
    585    584    586     1   108.4600466 328.025600
    586    584    596     1   109.5600471 388.275200
    587    590    591     1   109.8000471 387.438400
    587    590    592     1   109.8000471 387.438400
    588    587    590     1   109.5600471 388.275200
    588    587    589     1   108.4600466 328.025600
    589    587    590     1   109.5600471 388.275200
    590    599    600     1   109.5600471 388.275200
    590    599    601     1   109.5600471 388.275200
    591    590    599     1   109.8000471 387.438400
    591    590    592     1   107.5800459 329.699200
    592    590    599     1   109.8000471 387.438400
    593    605    606     1   109.5600471 388.275200
    593    605    607     1   109.5600471 388.275200
    594    593    605     1   109.8000471 387.438400
    594    593    595     1   107.5800459 329.699200
    595    593    605     1   109.8000471 387.438400
    596    602    603     1   109.5600471 388.275200
    596    602    604     1   109.5600471 388.275200
    597    596    602     1   109.8000471 387.438400
    597    596    598     1   107.5800459 329.699200
    598    596    602     1   109.8000471 387.438400
    600    599    608     1   109.7800468 425.094400
    600    599    601     1   108.4600466 328.025600
    601    599    608     1   109.7800468 425.094400
    603    602   1246     1   109.7800468 425.094400
    603    602    604     1   108.4600466 328.025600
    604    602   1246     1   109.7800468 425.094400
    606    605   1275     1   109.7800468 425.094400
    606    605    607     1   108.4600466 328.025600
    607    605   1275     1   109.7800468 425.094400
    609    610    611     1   109.8800469 414.216000
    609    610    612     1   109.8800469 414.216000
    609    613    614     1   109.8800469 414.216000
    609    613    615     1   109.8800469 414.216000
    609    616    617     1   109.8800469 414.216000
    609    616    618     1   109.8800469 414.216000
    610    622    623     1   109.8000471 387.438400
    610    622    624     1   109.8000471 387.438400
    611    610    622     1   109.5600471 388.275200
    611    610    612     1   108.4600466 328.025600
    612    610    622     1   109.5600471 388.275200
    613    625    626     1   109.8000471 387.438400
    613    625    627     1   109.8000471 387.438400
    614    613    625     1   109.5600471 388.275200
    614    613    615     1   108.4600466 328.025600
    615    613    625     1   109.5600471 388.275200
    616    619    620     1   109.8000471 387.438400
    616    619    621     1   109.8000471 387.438400
    617    616    619     1   109.5600471 388.275200
    617    616    618     1   108.4600466 328.025600
    618    616    619     1   109.5600471 388.275200
    619    628    629     1   109.5600471 388.275200
    619    628    630     1   109.5600471 388.275200
    620    619    628     1   109.8000471 387.438400
    620    619    621     1   107.5800459 329.699200
    621    619    628     1   109.8000471 387.438400
    622    634    635     1   109.5600471 388.275200
    622    634    636     1   109.5600471 388.275200
    623    622    634     1   109.8000471 387.438400
    623    622    624     1   107.5800459 329.699200
    624    622    634     1   109.8000471 387.438400
    625    631    632     1   109.5600471 388.275200
    625    631    633     1   109.5600471 388.275200
    626    625    631     1   109.8000471 387.438400
    626    625    627     1   107.5800459 329.699200
    627    625    631     1   109.8000471 387.438400
    629    628    637     1   109.7800468 425.094400
    629    628    630     1   108.4600466 328.025600
    630    628    637     1   109.7800468 425.094400
    632    631   1304     1   109.7800468 425.094400
    632    631    633     1   108.4600466 328.025600
    633    631   1304     1   109.7800468 425.094400
    635    634   1333     1   109.7800468 425.094400
    635    634    636     1   108.4600466 328.025600
    636    634   1333     1   109.7800468 425.094400
    638    641    642     1   109.8000471 387.438400
    638    641    643     1   109.8000471 387.438400
    639    638    641     1   109.5600471 388.275200
    639    638    666     1   109.7800468 425.094400
    639    638    640     1   108.4600466 328.025600
    640    638    641     1   109.5600471 388.275200
    640    638    666     1   109.7800468 425.094400
    641    644    645     1   109.5600471 388.275200
    641    644    646     1   109.5600471 388.275200
    642    641    644     1   109.8000471 387.438400
    642    641    643     1   107.5800459 329.699200
    643    641    644     1   109.8000471 387.438400
    645    644    647     1   109.8800469 414.216000
    645    644    646     1   108.4600466 328.025600
    646    644    647     1   109.8800469 414.216000
    647    648    649     1   109.8800469 414.216000
    647    648    650     1   109.8800469 414.216000
    647    657    658     1   109.8800469 414.216000
    647    657    659     1   109.8800469 414.216000
    648    651    652     1   109.8000471 387.438400
    648    651    653     1   109.8000471 387.438400
    649    648    651     1   109.5600471 388.275200
    649    648    650     1   108.4600466 328.025600
    650    648    651     1   109.5600471 388.275200
    652    651    654     1   108.7700466 392.459200
    652    651    653     1   107.5800459 329.699200
    653    651    654     1   108.7700466 392.459200
    657    660    661     1   109.8000471 387.438400
    657    660    662     1   109.8000471 387.438400
    658    657    660     1   109.5600471 388.275200
    658    657    659     1   108.4600466 328.025600
    659    657    660     1   109.5600471 388.275200
    661    660    663     1   108.7700466 392.459200
    661    660    662     1   107.5800459 329.699200
    662    660    663     1   108.7700466 392.459200
    667    670    671     1   109.8000471 387.438400
    667    670    672     1   109.8000471 387.438400
    668    667    670     1   109.5600471 388.275200
    668    667    695     1   109.7800468 425.094400
    668    667    669     1   108.4600466 328.025600
    669    667    670     1   109.5600471 388.275200
    669    667    695     1   109.7800468 425.094400
    670    673    674     1   109.5600471 388.275200
    670    673    675     1   109.5600471 388.275200
    671    670    673     1   109.8000471 387.438400
    671    670    672     1   107.5800459 329.699200
    672    670    673     1   109.8000471 387.438400
    674    673    676     1   109.8800469 414.216000
    674    673    675     1   108.4600466 328.025600
    675    673    676     1   109.8800469 414.216000
    676    677    678     1   109.8800469 414.216000
    676    677    679     1   109.8800469 414.216000
    676    686    687     1   109.8800469 414.216000
    676    686    688     1   109.8800469 414.216000
    677    680    681     1   109.8000471 387.438400
    677    680    682     1   109.8000471 387.438400
    678    677    680     1   109.5600471 388.275200
    678    677    679     1   108.4600466 328.025600
    679    677    680     1   109.5600471 388.275200
    681    680    683     1   108.7700466 392.459200
    681    680    682     1   107.5800459 329.699200
    682    680    683     1   108.7700466 392.459200
    686    689    690     1   109.8000471 387.438400
    686    689    691     1   109.8000471 387.438400
    687    686    689     1   109.5600471 388.275200
    687    686    688     1   108.4600466 328.025600
    688    686    689     1   109.5600471 388.275200
    690    689    692     1   108.7700466 392.459200
    690    689    691     1   107.5800459 329.699200
    691    689    692     1   108.7700466 392.459200
    696    699    700     1   109.8000471 387.438400
    696    699    701     1   109.8000471 387.438400
    697    696    699     1   109.5600471 388.275200
    697    696    724     1   109.7800468 425.094400
    697    696    698     1   108.4600466 328.025600
    698    696    699     1   109.5600471 388.275200
    698    696    724     1   109.7800468 425.094400
    699    702    703     1   109.5600471 388.275200
    699    702    704     1   109.5600471 388.275200
    700    699    702     1   109.8000471 387.438400
    700    699    701     1   107.5800459 329.699200
    701    699    702     1   109.8000471 387.438400
    703    702    705     1   109.8800469 414.216000
    703    702    704     1   108.4600466 328.025600
    704    702    705     1   109.8800469 414.216000
    705    706    707     1   109.8800469 414.216000
    705    706    708     1   109.8800469 414.216000
    705    715    716     1   109.8800469 414.216000
    705    715    717     1   109.8800469 414.216000
    706    709    710     1   109.8000471 387.438400
    706    709    711     1   109.8000471 387.438400
    707    706    709     1   109.5600471 388.275200
    707    706    708     1   108.4600466 328.025600
    708    706    709     1   109.5600471 388.275200
    710    709    712     1   108.7700466 392.459200
    710    709    711     1   107.5800459 329.699200
    711    709    712     1   108.7700466 392.459200
    715    718    719     1   109.8000471 387.438400
    715    718    720     1   109.8000471 387.438400
    716    715    718     1   109.5600471 388.275200
    716    715    717     1   108.4600466 328.025600
    717    715    718     1   109.5600471 388.275200
    719    718    721     1   108.7700466 392.459200
    719    718    720     1   107.5800459 329.699200
    720    718    721     1   108.7700466 392.459200
    725    728    729     1   109.8000471 387.438400
    725    728    730     1   109.8000471 387.438400
    726    725    728     1   109.5600471 388.275200
    726    725    753     1   109.7800468 425.094400
    726    725    727     1   108.4600466 328.025600
    727    725    728     1   109.5600471 388.275200
    727    725    753     1   109.7800468 425.094400
    728    731    732     1   109.5600471 388.275200
    728    731    733     1   109.5600471 388.275200
    729    728    731     1   109.8000471 387.438400
    729    728    730     1   107.5800459 329.699200
    730    728    731     1   109.8000471 387.438400
    732    731    734     1   109.8800469 414.216000
    732    731    733     1   108.4600466 328.025600
    733    731    734     1   109.8800469 414.216000
    734    735    736     1   109.8800469 414.216000
    734    735    737     1   109.8800469 414.216000
    734    744    745     1   109.8800469 414.216000
    734    744    746     1   109.8800469 414.216000
    735    738    739     1   109.8000471 387.438400
    735    738    740     1   109.8000471 387.438400
    736    735    738     1   109.5600471 388.275200
    736    735    737     1   108.4600466 328.025600
    737    735    738     1   109.5600471 388.275200
    739    738    741     1   108.7700466 392.459200
    739    738    740     1   107.5800459 329.699200
    740    738    741     1   108.7700466 392.459200
    744    747    748     1   109.8000471 387.438400
    744    747    749     1   109.8000471 387.438400
    745    744    747     1   109.5600471 388.275200
    745    744    746     1   108.4600466 328.025600
    746    744    747     1   109.5600471 388.275200
    748    747    750     1   108.7700466 392.459200
    748    747    749     1   107.5800459 329.699200
    749    747    750     1   108.7700466 392.459200
    754    757    758     1   109.8000471 387.438400
    754    757    759     1   109.8000471 387.438400
    755    754    757     1   109.5600471 388.275200
    755    754    782     1   109.7800468 425.094400
    755    754    756     1   108.4600466 328.025600
    756    754    757     1   109.5600471 388.275200
    756    754    782     1   109.7800468 425.094400
    757    760    761     1   109.5600471 388.275200
    757    760    762     1   109.5600471 388.275200
    758    757    760     1   109.8000471 387.438400
    758    757    759     1   107.5800459 329.699200
    759    757    760     1   109.8000471 387.438400
    761    760    763     1   109.8800469 414.216000
    761    760    762     1   108.4600466 328.025600
    762    760    763     1   109.8800469 414.216000
    763    764    765     1   109.8800469 414.216000
    763    764    766     1   109.8800469 414.216000
    763    773    774     1   109.8800469 414.216000
    763    773    775     1   109.8800469 414.216000
    764    767    768     1   109.8000471 387.438400
    764    767    769     1   109.8000471 387.438400
    765    764    767     1   109.5600471 388.275200
    765    764    766     1   108.4600466 328.025600
    766    764    767     1   109.5600471 388.275200
    768    767    770     1   108.7700466 392.459200
    768    767    769     1   107.5800459 329.699200
    769    767    770     1   108.7700466 392.459200
    773    776    777     1   109.8000471 387.438400
    773    776    778     1   109.8000471 387.438400
    774    773    776     1   109.5600471 388.275200
    774    773    775     1   108.4600466 328.025600
    775    773    776     1   109.5600471 388.275200
    777    776    779     1   108.7700466 392.459200
    777    776    778     1   107.5800459 329.699200
    778    776    779     1   108.7700466 392.459200
    783    786    787     1   109.8000471 387.438400
    783    786    788     1   109.8000471 387.438400
    784    783    786     1   109.5600471 388.275200
    784    783    811     1   109.7800468 425.094400
    784    783    785     1   108.4600466 328.025600
    785    783    786     1   109.5600471 388.275200
    785    783    811     1   109.7800468 425.094400
    786    789    790     1   109.5600471 388.275200
    786    789    791     1   109.5600471 388.275200
    787    786    789     1   109.8000471 387.438400
    787    786    788     1   107.5800459 329.699200
    788    786    789     1   109.8000471 387.438400
    790    789    792     1   109.8800469 414.216000
    790    789    791     1   108.4600466 328.025600
    791    789    792     1   109.8800469 414.216000
    792    793    794     1   109.8800469 414.216000
    792    793    795     1   109.8800469 414.216000
    792    802    803     1   109.8800469 414.216000
    792    802    804     1   109.8800469 414.216000
    793    796    797     1   109.8000471 387.438400
    793    796    798     1   109.8000471 387.438400
    794    793    796     1   109.5600471 388.275200
    794    793    795     1   108.4600466 328.025600
    795    793    796     1   109.5600471 388.275200
    797    796    799     1   108.7700466 392.459200
    797    796    798     1   107.5800459 329.699200
    798    796    799     1   108.7700466 392.459200
    802    805    806     1   109.8000471 387.438400
    802    805    807     1   109.8000471 387.438400
    803    802    805     1   109.5600471 388.275200
    803    802    804     1   108.4600466 328.025600
    804    802    805     1   109.5600471 388.275200
    806    805    808     1   108.7700466 392.459200
    806    805    807     1   107.5800459 329.699200
    807    805    808     1   108.7700466 392.459200
    812    815    816     1   109.8000471 387.438400
    812    815    817     1   109.8000471 387.438400
    813    812    815     1   109.5600471 388.275200
    813    812    840     1   109.7800468 425.094400
    813    812    814     1   108.4600466 328.025600
    814    812    815     1   109.5600471 388.275200
    814    812    840     1   109.7800468 425.094400
    815    818    819     1   109.5600471 388.275200
    815    818    820     1   109.5600471 388.275200
    816    815    818     1   109.8000471 387.438400
    816    815    817     1   107.5800459 329.699200
    817    815    818     1   109.8000471 387.438400
    819    818    821     1   109.8800469 414.216000
    819    818    820     1   108.4600466 328.025600
    820    818    821     1   109.8800469 414.216000
    821    822    823     1   109.8800469 414.216000
    821    822    824     1   109.8800469 414.216000
    821    831    832     1   109.8800469 414.216000
    821    831    833     1   109.8800469 414.216000
    822    825    826     1   109.8000471 387.438400
    822    825    827     1   109.8000471 387.438400
    823    822    825     1   109.5600471 388.275200
    823    822    824     1   108.4600466 328.025600
    824    822    825     1   109.5600471 388.275200
    826    825    828     1   108.7700466 392.459200
    826    825    827     1   107.5800459 329.699200
    827    825    828     1   108.7700466 392.459200
    831    834    835     1   109.8000471 387.438400
    831    834    836     1   109.8000471 387.438400
    832    831    834     1   109.5600471 388.275200
    832    831    833     1   108.4600466 328.025600
    833    831    834     1   109.5600471 388.275200
    835    834    837     1   108.7700466 392.459200
    835    834    836     1   107.5800459 329.699200
    836    834    837     1   108.7700466 392.459200
    841    844    845     1   109.8000471 387.438400
    841    844    846     1   109.8000471 387.438400
    842    841    844     1   109.5600471 388.275200
    842    841    869     1   109.7800468 425.094400
    842    841    843     1   108.4600466 328.025600
    843    841    844     1   109.5600471 388.275200
    843    841    869     1   109.7800468 425.094400
    844    847    848     1   109.5600471 388.275200
    844    847    849     1   109.5600471 388.275200
    845    844    847     1   109.8000471 387.438400
    845    844    846     1   107.5800459 329.699200
    846    844    847     1   109.8000471 387.438400
    848    847    850     1   109.8800469 414.216000
    848    847    849     1   108.4600466 328.025600
    849    847    850     1   109.8800469 414.216000
    850    851    852     1   109.8800469 414.216000
    850    851    853     1   109.8800469 414.216000
    850    860    861     1   109.8800469 414.216000
    850    860    862     1   109.8800469 414.216000
    851    854    855     1   109.8000471 387.438400
    851    854    856     1   109.8000471 387.438400
    852    851    854     1   109.5600471 388.275200
    852    851    853     1   108.4600466 328.025600
    853    851    854     1   109.5600471 388.275200
    855    854    857     1   108.7700466 392.459200
    855    854    856     1   107.5800459 329.699200
    856    854    857     1   108.7700466 392.459200
    860    863    864     1   109.8000471 387.438400
    860    863    865     1   109.8000471 387.438400
    861    860    863     1   109.5600471 388.275200
    861    860    862     1   108.4600466 328.025600
    862    860    863     1   109.5600471 388.275200
    864    863    866     1   108.7700466 392.459200
    864    863    865     1   107.5800459 329.699200
    865    863    866     1   108.7700466 392.459200
    870    873    874     1   109.8000471 387.438400
    870    873    875     1   109.8000471 387.438400
    871    870    873     1   109.5600471 388.275200
    871    870    898     1   109.7800468 425.094400
    871    870    872     1   108.4600466 328.025600
    872    870    873     1   109.5600471 388.275200
    872    870    898     1   109.7800468 425.094400
    873    876    877     1   109.5600471 388.275200
    873    876    878     1   109.5600471 388.275200
    874    873    876     1   109.8000471 387.438400
    874    873    875     1   107.5800459 329.699200
    875    873    876     1   109.8000471 387.438400
    877    876    879     1   109.8800469 414.216000
    877    876    878     1   108.4600466 328.025600
    878    876    879     1   109.8800469 414.216000
    879    880    881     1   109.8800469 414.216000
    879    880    882     1   109.8800469 414.216000
    879    889    890     1   109.8800469 414.216000
    879    889    891     1   109.8800469 414.216000
    880    883    884     1   109.8000471 387.438400
    880    883    885     1   109.8000471 387.438400
    881    880    883     1   109.5600471 388.275200
    881    880    882     1   108.4600466 328.025600
    882    880    883     1   109.5600471 388.275200
    884    883    886     1   108.7700466 392.459200
    884    883    885     1   107.5800459 329.699200
    885    883    886     1   108.7700466 392.459200
    889    892    893     1   109.8000471 387.438400
    889    892    894     1   109.8000471 387.438400
    890    889    892     1   109.5600471 388.275200
    890    889    891     1   108.4600466 328.025600
    891    889    892     1   109.5600471 388.275200
    893    892    895     1   108.7700466 392.459200
    893    892    894     1   107.5800459 329.699200
    894    892    895     1   108.7700466 392.459200
    899    902    903     1   109.8000471 387.438400
    899    902    904     1   109.8000471 387.438400
    900    899    902     1   109.5600471 388.275200
    900    899    927     1   109.7800468 425.094400
    900    899    901     1   108.4600466 328.025600
    901    899    902     1   109.5600471 388.275200
    901    899    927     1   109.7800468 425.094400
    902    905    906     1   109.5600471 388.275200
    902    905    907     1   109.5600471 388.275200
    903    902    905     1   109.8000471 387.438400
    903    902    904     1   107.5800459 329.699200
    904    902    905     1   109.8000471 387.438400
    906    905    908     1   109.8800469 414.216000
    906    905    907     1   108.4600466 328.025600
    907    905    908     1   109.8800469 414.216000
    908    909    910     1   109.8800469 414.216000
    908    909    911     1   109.8800469 414.216000
    908    918    919     1   109.8800469 414.216000
    908    918    920     1   109.8800469 414.216000
    909    912    913     1   109.8000471 387.438400
    909    912    914     1   109.8000471 387.438400
    910    909    912     1   109.5600471 388.275200
    910    909    911     1   108.4600466 328.025600
    911    909    912     1   109.5600471 388.275200
    913    912    915     1   108.7700466 392.459200
    913    912    914     1   107.5800459 329.699200
    914    912    915     1   108.7700466 392.459200
    918    921    922     1   109.8000471 387.438400
    918    921    923     1   109.8000471 387.438400
    919    918    921     1   109.5600471 388.275200
    919    918    920     1   108.4600466 328.025600
    920    918    921     1   109.5600471 388.275200
    922    921    924     1   108.7700466 392.459200
    922    921    923     1   107.5800459 329.699200
    923    921    924     1   108.7700466 392.459200
    928    931    932     1   109.8000471 387.438400
    928    931    933     1   109.8000471 387.438400
    929    928    931     1   109.5600471 388.275200
    929    928    956     1   109.7800468 425.094400
    929    928    930     1   108.4600466 328.025600
    930    928    931     1   109.5600471 388.275200
    930    928    956     1   109.7800468 425.094400
    931    934    935     1   109.5600471 388.275200
    931    934    936     1   109.5600471 388.275200
    932    931    934     1   109.8000471 387.438400
    932    931    933     1   107.5800459 329.699200
    933    931    934     1   109.8000471 387.438400
    935    934    937     1   109.8800469 414.216000
    935    934    936     1   108.4600466 328.025600
    936    934    937     1   109.8800469 414.216000
    937    938    939     1   109.8800469 414.216000
    937    938    940     1   109.8800469 414.216000
    937    947    948     1   109.8800469 414.216000
    937    947    949     1   109.8800469 414.216000
    938    941    942     1   109.8000471 387.438400
    938    941    943     1   109.8000471 387.438400
    939    938    941     1   109.5600471 388.275200
    939    938    940     1   108.4600466 328.025600
    940    938    941     1   109.5600471 388.275200
    942    941    944     1   108.7700466 392.459200
    942    941    943     1   107.5800459 329.699200
    943    941    944     1   108.7700466 392.459200
    947    950    951     1   109.8000471 387.438400
    947    950    952     1   109.8000471 387.438400
    948    947    950     1   109.5600471 388.275200
    948    947    949     1   108.4600466 328.025600
    949    947    950     1   109.5600471 388.275200
    951    950    953     1   108.7700466 392.459200
    951    950    952     1   107.5800459 329.699200
    952    950    953     1   108.7700466 392.459200
    957    960    961     1   109.8000471 387.438400
    957    960    962     1   109.8000471 387.438400
    958    957    960     1   109.5600471 388.275200
    958    957    985     1   109.7800468 425.094400
    958    957    959     1   108.4600466 328.025600
    959    957    960     1   109.5600471 388.275200
    959    957    985     1   109.7800468 425.094400
    960    963    964     1   109.5600471 388.275200
    960    963    965     1   109.5600471 388.275200
    961    960    963     1   109.8000471 387.438400
    961    960    962     1   107.5800459 329.699200
    962    960    963     1   109.8000471 387.438400
    964    963    966     1   109.8800469 414.216000
    964    963    965     1   108.4600466 328.025600
    965    963    966     1   109.8800469 414.216000
    966    967    968     1   109.8800469 414.216000
    966    967    969     1   109.8800469 414.216000
    966    976    977     1   109.8800469 414.216000
    966    976    978     1   109.8800469 414.216000
    967    970    971     1   109.8000471 387.438400
    967    970    972     1   109.8000471 387.438400
    968    967    970     1   109.5600471 388.275200
    968    967    969     1   108.4600466 328.025600
    969    967    970     1   109.5600471 388.275200
    971    970    973     1   108.7700466 392.459200
    971    970    972     1   107.5800459 329.699200
    972    970    973     1   108.7700466 392.459200
    976    979    980     1   109.8000471 387.438400
    976    979    981     1   109.8000471 387.438400
    977    976    979     1   109.5600471 388.275200
    977    976    978     1   108.4600466 328.025600
    978    976    979     1   109.5600471 388.275200
    980    979    982     1   108.7700466 392.459200
    980    979    981     1   107.5800459 329.699200
    981    979    982     1   108.7700466 392.459200
    986    989    990     1   109.8000471 387.438400
    986    989    991     1   109.8000471 387.438400
    987    986    989     1   109.5600471 388.275200
    987    986   1014     1   109.7800468 425.094400
    987    986    988     1   108.4600466 328.025600
    988    986    989     1   109.5600471 388.275200
    988    986   1014     1   109.7800468 425.094400
    989    992    993     1   109.5600471 388.275200
    989    992    994     1   109.5600471 388.275200
    990    989    992     1   109.8000471 387.438400
    990    989    991     1   107.5800459 329.699200
    991    989    992     1   109.8000471 387.438400
    993    992    995     1   109.8800469 414.216000
    993    992    994     1   108.4600466 328.025600
    994    992    995     1   109.8800469 414.216000
    995    996    997     1   109.8800469 414.216000
    995    996    998     1   109.8800469 414.216000
    995   1005   1006     1   109.8800469 414.216000
    995   1005   1007     1   109.8800469 414.216000
    996    999   1000     1   109.8000471 387.438400
    996    999   1001     1   109.8000471 387.438400
    997    996    999     1   109.5600471 388.275200
    997    996    998     1   108.4600466 328.025600
    998    996    999     1   109.5600471 388.275200
   1000    999   1002     1   108.7700466 392.459200
   1000    999   1001     1   107.5800459 329.699200
   1001    999   1002     1   108.7700466 392.459200
   1005   1008   1009     1   109.8000471 387.438400
   1005   1008   1010     1   109.8000471 387.438400
   1006   1005   1008     1   109.5600471 388.275200
   1006   1005   1007     1   108.4600466 328.025600
   1007   1005   1008     1   109.5600471 388.275200
   1009   1008   1011     1   108.7700466 392.459200
   1009   1008   1010     1   107.5800459 329.699200
   1010   1008   1011     1   108.7700466 392.459200
   1015   1018   1019     1   109.8000471 387.438400
   1015   1018   1020     1   109.8000471 387.438400
   1016   1015   1018     1   109.5600471 388.275200
   1016   1015   1043     1   109.7800468 425.094400
   1016   1015   1017     1   108.4600466 328.025600
   1017   1015   1018     1   109.5600471 388.275200
   1017   1015   1043     1   109.7800468 425.094400
   1018   1021   1022     1   109.5600471 388.275200
   1018   1021   1023     1   109.5600471 388.275200
   1019   1018   1021     1   109.8000471 387.438400
   1019   1018   1020     1   107.5800459 329.699200
   1020   1018   1021     1   109.8000471 387.438400
   1022   1021   1024     1   109.8800469 414.216000
   1022   1021   1023     1   108.4600466 328.025600
   1023   1021   1024     1   109.8800469 414.216000
   1024   1025   1026     1   109.8800469 414.216000
   1024   1025   1027     1   109.8800469 414.216000
   1024   1034   1035     1   109.8800469 414.216000
   1024   1034   1036     1   109.8800469 414.216000
   1025   1028   1029     1   109.8000471 387.438400
   1025   1028   1030     1   109.8000471 387.438400
   1026   1025   1028     1   109.5600471 388.275200
   1026   1025   1027     1   108.4600466 328.025600
   1027   1025   1028     1   109.5600471 388.275200
   1029   1028   1031     1   108.7700466 392.459200
   1029   1028   1030     1   107.5800459 329.699200
   1030   1028   1031     1   108.7700466 392.459200
   1034   1037   1038     1   109.8000471 387.438400
   1034   1037   1039     1   109.8000471 387.438400
   1035   1034   1037     1   109.5600471 388.275200
   1035   1034   1036     1   108.4600466 328.025600
   1036   1034   1037     1   109.5600471 388.275200
   1038   1037   1040     1   108.7700466 392.459200
   1038   1037   1039     1   107.5800459 329.699200
   1039   1037   1040     1   108.7700466 392.459200
   1044   1047   1048     1   109.8000471 387.438400
   1044   1047   1049     1   109.8000471 387.438400
   1045   1044   1047     1   109.5600471 388.275200
   1045   1044   1072     1   109.7800468 425.094400
   1045   1044   1046     1   108.4600466 328.025600
   1046   1044   1047     1   109.5600471 388.275200
   1046   1044   1072     1   109.7800468 425.094400
   1047   1050   1051     1   109.5600471 388.275200
   1047   1050   1052     1   109.5600471 388.275200
   1048   1047   1050     1   109.8000471 387.438400
   1048   1047   1049     1   107.5800459 329.699200
   1049   1047   1050     1   109.8000471 387.438400
   1051   1050   1053     1   109.8800469 414.216000
   1051   1050   1052     1   108.4600466 328.025600
   1052   1050   1053     1   109.8800469 414.216000
   1053   1054   1055     1   109.8800469 414.216000
   1053   1054   1056     1   109.8800469 414.216000
   1053   1063   1064     1   109.8800469 414.216000
   1053   1063   1065     1   109.8800469 414.216000
   1054   1057   1058     1   109.8000471 387.438400
   1054   1057   1059     1   109.8000471 387.438400
   1055   1054   1057     1   109.5600471 388.275200
   1055   1054   1056     1   108.4600466 328.025600
   1056   1054   1057     1   109.5600471 388.275200
   1058   1057   1060     1   108.7700466 392.459200
   1058   1057   1059     1   107.5800459 329.699200
   1059   1057   1060     1   108.7700466 392.459200
   1063   1066   1067     1   109.8000471 387.438400
   1063   1066   1068     1   109.8000471 387.438400
   1064   1063   1066     1   109.5600471 388.275200
   1064   1063   1065     1   108.4600466 328.025600
   1065   1063   1066     1   109.5600471 388.275200
   1067   1066   1069     1   108.7700466 392.459200
   1067   1066   1068     1   107.5800459 329.699200
   1068   1066   1069     1   108.7700466 392.459200
   1073   1076   1077     1   109.8000471 387.438400
   1073   1076   1078     1   109.8000471 387.438400
   1074   1073   1076     1   109.5600471 388.275200
   1074   1073   1101     1   109.7800468 425.094400
   1074   1073   1075     1   108.4600466 328.025600
   1075   1073   1076     1   109.5600471 388.275200
   1075   1073   1101     1   109.7800468 425.094400
   1076   1079   1080     1   109.5600471 388.275200
   1076   1079   1081     1   109.5600471 388.275200
   1077   1076   1079     1   109.8000471 387.438400
   1077   1076   1078     1   107.5800459 329.699200
   1078   1076   1079     1   109.8000471 387.438400
   1080   1079   1082     1   109.8800469 414.216000
   1080   1079   1081     1   108.4600466 328.025600
   1081   1079   1082     1   109.8800469 414.216000
   1082   1083   1084     1   109.8800469 414.216000
   1082   1083   1085     1   109.8800469 414.216000
   1082   1092   1093     1   109.8800469 414.216000
   1082   1092   1094     1   109.8800469 414.216000
   1083   1086   1087     1   109.8000471 387.438400
   1083   1086   1088     1   109.8000471 387.438400
   1084   1083   1086     1   109.5600471 388.275200
   1084   1083   1085     1   108.4600466 328.025600
   1085   1083   1086     1   109.5600471 388.275200
   1087   1086   1089     1   108.7700466 392.459200
   1087   1086   1088     1   107.5800459 329.699200
   1088   1086   1089     1   108.7700466 392.459200
   1092   1095   1096     1   109.8000471 387.438400
   1092   1095   1097     1   109.8000471 387.438400
   1093   1092   1095     1   109.5600471 388.275200
   1093   1092   1094     1   108.4600466 328.025600
   1094   1092   1095     1   109.5600471 388.275200
   1096   1095   1098     1   108.7700466 392.459200
   1096   1095   1097     1   107.5800459 329.699200
   1097   1095   1098     1   108.7700466 392.459200
   1102   1105   1106     1   109.8000471 387.438400
   1102   1105   1107     1   109.8000471 387.438400
   1103   1102   1105     1   109.5600471 388.275200
   1103   1102   1130     1   109.7800468 425.094400
   1103   1102   1104     1   108.4600466 328.025600
   1104   1102   1105     1   109.5600471 388.275200
   1104   1102   1130     1   109.7800468 425.094400
   1105   1108   1109     1   109.5600471 388.275200
   1105   1108   1110     1   109.5600471 388.275200
   1106   1105   1108     1   109.8000471 387.438400
   1106   1105   1107     1   107.5800459 329.699200
   1107   1105   1108     1   109.8000471 387.438400
   1109   1108   1111     1   109.8800469 414.216000
   1109   1108   1110     1   108.4600466 328.025600
   1110   1108   1111     1   109.8800469 414.216000
   1111   1112   1113     1   109.8800469 414.216000
   1111   1112   1114     1   109.8800469 414.216000
   1111   1121   1122     1   109.8800469 414.216000
   1111   1121   1123     1   109.8800469 414.216000
   1112   1115   1116     1   109.8000471 387.438400
   1112   1115   1117     1   109.8000471 387.438400
   1113   1112   1115     1   109.5600471 388.275200
   1113   1112   1114     1   108.4600466 328.025600
   1114   1112   1115     1   109.5600471 388.275200
   1116   1115   1118     1   108.7700466 392.459200
   1116   1115   1117     1   107.5800459 329.699200
   1117   1115   1118     1   108.7700466 392.459200
   1121   1124   1125     1   109.8000471 387.438400
   1121   1124   1126     1   109.8000471 387.438400
   1122   1121   1124     1   109.5600471 388.275200
   1122   1121   1123     1   108.4600466 328.025600
   1123   1121   1124     1   109.5600471 388.275200
   1125   1124   1127     1   108.7700466 392.459200
   1125   1124   1126     1   107.5800459 329.699200
   1126   1124   1127     1   108.7700466 392.459200
   1131   1134   1135     1   109.8000471 387.438400
   1131   1134   1136     1   109.8000471 387.438400
   1132   1131   1134     1   109.5600471 388.275200
   1132   1131   1159     1   109.7800468 425.094400
   1132   1131   1133     1   108.4600466 328.025600
   1133   1131   1134     1   109.5600471 388.275200
   1133   1131   1159     1   109.7800468 425.094400
   1134   1137   1138     1   109.5600471 388.275200
   1134   1137   1139     1   109.5600471 388.275200
   1135   1134   1137     1   109.8000471 387.438400
   1135   1134   1136     1   107.5800459 329.699200
   1136   1134   1137     1   109.8000471 387.438400
   1138   1137   1140     1   109.8800469 414.216000
   1138   1137   1139     1   108.4600466 328.025600
   1139   1137   1140     1   109.8800469 414.216000
   1140   1141   1142     1   109.8800469 414.216000
   1140   1141   1143     1   109.8800469 414.216000
   1140   1150   1151     1   109.8800469 414.216000
   1140   1150   1152     1   109.8800469 414.216000
   1141   1144   1145     1   109.8000471 387.438400
   1141   1144   1146     1   109.8000471 387.438400
   1142   1141   1144     1   109.5600471 388.275200
   1142   1141   1143     1   108.4600466 328.025600
   1143   1141   1144     1   109.5600471 388.275200
   1145   1144   1147     1   108.7700466 392.459200
   1145   1144   1146     1   107.5800459 329.699200
   1146   1144   1147     1   108.7700466 392.459200
   1150   1153   1154     1   109.8000471 387.438400
   1150   1153   1155     1   109.8000471 387.438400
   1151   1150   1153     1   109.5600471 388.275200
   1151   1150   1152     1   108.4600466 328.025600
   1152   1150   1153     1   109.5600471 388.275200
   1154   1153   1156     1   108.7700466 392.459200
   1154   1153   1155     1   107.5800459 329.699200
   1155   1153   1156     1   108.7700466 392.459200
   1160   1163   1164     1   109.8000471 387.438400
   1160   1163   1165     1   109.8000471 387.438400
   1161   1160   1163     1   109.5600471 388.275200
   1161   1160   1188     1   109.7800468 425.094400
   1161   1160   1162     1   108.4600466 328.025600
   1162   1160   1163     1   109.5600471 388.275200
   1162   1160   1188     1   109.7800468 425.094400
   1163   1166   1167     1   109.5600471 388.275200
   1163   1166   1168     1   109.5600471 388.275200
   1164   1163   1166     1   109.8000471 387.438400
   1164   1163   1165     1   107.5800459 329.699200
   1165   1163   1166     1   109.8000471 387.438400
   1167   1166   1169     1   109.8800469 414.216000
   1167   1166   1168     1   108.4600466 328.025600
   1168   1166   1169     1   109.8800469 414.216000
   1169   1170   1171     1   109.8800469 414.216000
   1169   1170   1172     1   109.8800469 414.216000
   1169   1179   1180     1   109.8800469 414.216000
   1169   1179   1181     1   109.8800469 414.216000
   1170   1173   1174     1   109.8000471 387.438400
   1170   1173   1175     1   109.8000471 387.438400
   1171   1170   1173     1   109.5600471 388.275200
   1171   1170   1172     1   108.4600466 328.025600
   1172   1170   1173     1   109.5600471 388.275200
   1174   1173   1176     1   108.7700466 392.459200
   1174   1173   1175     1   107.5800459 329.699200
   1175   1173   1176     1   108.7700466 392.459200
   1179   1182   1183     1   109.8000471 387.438400
   1179   1182   1184     1   109.8000471 387.438400
   1180   1179   1182     1   109.5600471 388.275200
   1180   1179   1181     1   108.4600466 328.025600
   1181   1179   1182     1   109.5600471 388.275200
   1183   1182   1185     1   108.7700466 392.459200
   1183   1182   1184     1   107.5800459 329.699200
   1184   1182   1185     1   108.7700466 392.459200
   1189   1192   1193     1   109.8000471 387.438400
   1189   1192   1194     1   109.8000471 387.438400
   1190   1189   1192     1   109.5600471 388.275200
   1190   1189   1217     1   109.7800468 425.094400
   1190   1189   1191     1   108.4600466 328.025600
   1191   1189   1192     1   109.5600471 388.275200
   1191   1189   1217     1   109.7800468 425.094400
   1192   1195   1196     1   109.5600471 388.275200
   1192   1195   1197     1   109.5600471 388.275200
   1193   1192   1195     1   109.8000471 387.438400
   1193   1192   1194     1   107.5800459 329.699200
   1194   1192   1195     1   109.8000471 387.438400
   1196   1195   1198     1   109.8800469 414.216000
   1196   1195   1197     1   108.4600466 328.025600
   1197   1195   1198     1   109.8800469 414.216000
   1198   1199   1200     1   109.8800469 414.216000
   1198   1199   1201     1   109.8800469 414.216000
   1198   1208   1209     1   109.8800469 414.216000
   1198   1208   1210     1   109.8800469 414.216000
   1199   1202   1203     1   109.8000471 387.438400
   1199   1202   1204     1   109.8000471 387.438400
   1200   1199   1202     1   109.5600471 388.275200
   1200   1199   1201     1   108.4600466 328.025600
   1201   1199   1202     1   109.5600471 388.275200
   1203   1202   1205     1   108.7700466 392.459200
   1203   1202   1204     1   107.5800459 329.699200
   1204   1202   1205     1   108.7700466 392.459200
   1208   1211   1212     1   109.8000471 387.438400
   1208   1211   1213     1   109.8000471 387.438400
   1209   1208   1211     1   109.5600471 388.275200
   1209   1208   1210     1   108.4600466 328.025600
   1210   1208   1211     1   109.5600471 388.275200
   1212   1211   1214     1   108.7700466 392.459200
   1212   1211   1213     1   107.5800459 329.699200
   1213   1211   1214     1   108.7700466 392.459200
   1218   1221   1222     1   109.8000471 387.438400
   1218   1221   1223     1   109.8000471 387.438400
   1219   1218   1221     1   109.5600471 388.275200
   1219   1218   1246     1   109.7800468 425.094400
   1219   1218   1220     1   108.4600466 328.025600
   1220   1218   1221     1   109.5600471 388.275200
   1220   1218   1246     1   109.7800468 425.094400
   1221   1224   1225     1   109.5600471 388.275200
   1221   1224   1226     1   109.5600471 388.275200
   1222   1221   1224     1   109.8000471 387.438400
   1222   1221   1223     1   107.5800459 329.699200
   1223   1221   1224     1   109.8000471 387.438400
   1225   1224   1227     1   109.8800469 414.216000
   1225   1224   1226     1   108.4600466 328.025600
   1226   1224   1227     1   109.8800469 414.216000
   1227   1228   1229     1   109.8800469 414.216000
   1227   1228   1230     1   109.8800469 414.216000
   1227   1237   1238     1   109.8800469 414.216000
   1227   1237   1239     1   109.8800469 414.216000
   1228   1231   1232     1   109.8000471 387.438400
   1228   1231   1233     1   109.8000471 387.438400
   1229   1228   1231     1   109.5600471 388.275200
   1229   1228   1230     1   108.4600466 328.025600
   1230   1228   1231     1   109.5600471 388.275200
   1232   1231   1234     1   108.7700466 392.459200
   1232   1231   1233     1   107.5800459 329.699200
   1233   1231   1234     1   108.7700466 392.459200
   1237   1240   1241     1   109.8000471 387.438400
   1237   1240   1242     1   109.8000471 387.438400
   1238   1237   1240     1   109.5600471 388.275200
   1238   1237   1239     1   108.4600466 328.025600
   1239   1237   1240     1   109.5600471 388.275200
   1241   1240   1243     1   108.7700466 392.459200
   1241   1240   1242     1   107.5800459 329.699200
   1242   1240   1243     1   108.7700466 392.459200
   1247   1250   1251     1   109.8000471 387.438400
   1247   1250   1252     1   109.8000471 387.438400
   1248   1247   1250     1   109.5600471 388.275200
   1248   1247   1275     1   109.7800468 425.094400
   1248   1247   1249     1   108.4600466 328.025600
   1249   1247   1250     1   109.5600471 388.275200
   1249   1247   1275     1   109.7800468 425.094400
   1250   1253   1254     1   109.5600471 388.275200
   1250   1253   1255     1   109.5600471 388.275200
   1251   1250   1253     1   109.8000471 387.438400
   1251   1250   1252     1   107.5800459 329.699200
   1252   1250   1253     1   109.8000471 387.438400
   1254   1253   1256     1   109.8800469 414.216000
   1254   1253   1255     1   108.4600466 328.025600
   1255   1253   1256     1   109.8800469 414.216000
   1256   1257   1258     1   109.8800469 414.216000
   1256   1257   1259     1   109.8800469 414.216000
   1256   1266   1267     1   109.8800469 414.216000
   1256   1266   1268     1   109.8800469 414.216000
   1257   1260   1261     1   109.8000471 387.438400
   1257   1260   1262     1   109.8000471 387.438400
   1258   1257   1260     1   109.5600471 388.275200
   1258   1257   1259     1   108.4600466 328.025600
   1259   1257   1260     1   109.5600471 388.275200
   1261   1260   1263     1   108.7700466 392.459200
   1261   1260   1262     1   107.5800459 329.699200
   1262   1260   1263     1   108.7700466 392.459200
   1266   1269   1270     1   109.8000471 387.438400
   1266   1269   1271     1   109.8000471 387.438400
   1267   1266   1269     1   109.5600471 388.275200
   1267   1266   1268     1   108.4600466 328.025600
   1268   1266   1269     1   109.5600471 388.275200
   1270   1269   1272     1   108.7700466 392.459200
   1270   1269   1271     1   107.5800459 329.699200
   1271   1269   1272     1   108.7700466 392.459200
   1276   1279   1280     1   109.8000471 387.438400
   1276   1279   1281     1   109.8000471 387.438400
   1277   1276   1279     1   109.5600471 388.275200
   1277   1276   1304     1   109.7800468 425.094400
   1277   1276   1278     1   108.4600466 328.025600
   1278   1276   1279     1   109.5600471 388.275200
   1278   1276   1304     1   109.7800468 425.094400
   1279   1282   1283     1   109.5600471 388.275200
   1279   1282   1284     1   109.5600471 388.275200
   1280   1279   1282     1   109.8000471 387.438400
   1280   1279   1281     1   107.5800459 329.699200
   1281   1279   1282     1   109.8000471 387.438400
   1283   1282   1285     1   109.8800469 414.216000
   1283   1282   1284     1   108.4600466 328.025600
   1284   1282   1285     1   109.8800469 414.216000
   1285   1286   1287     1   109.8800469 414.216000
   1285   1286   1288     1   109.8800469 414.216000
   1285   1295   1296     1   109.8800469 414.216000
   1285   1295   1297     1   109.8800469 414.216000
   1286   1289   1290     1   109.8000471 387.438400
   1286   1289   1291     1   109.8000471 387.438400
   1287   1286   1289     1   109.5600471 388.275200
   1287   1286   1288     1   108.4600466 328.025600
   1288   1286   1289     1   109.5600471 388.275200
   1290   1289   1292     1   108.7700466 392.459200
   1290   1289   1291     1   107.5800459 329.699200
   1291   1289   1292     1   108.7700466 392.459200
   1295   1298   1299     1   109.8000471 387.438400
   1295   1298   1300     1   109.8000471 387.438400
   1296   1295   1298     1   109.5600471 388.275200
   1296   1295   1297     1   108.4600466 328.025600
   1297   1295   1298     1   109.5600471 388.275200
   1299   1298   1301     1   108.7700466 392.459200
   1299   1298   1300     1   107.5800459 329.699200
   1300   1298   1301     1   108.7700466 392.459200
   1305   1308   1309     1   109.8000471 387.438400
   1305   1308   1310     1   109.8000471 387.438400
   1306   1305   1308     1   109.5600471 388.275200
   1306   1305   1333     1   109.7800468 425.094400
   1306   1305   1307     1   108.4600466 328.025600
   1307   1305   1308     1   109.5600471 388.275200
   1307   1305   1333     1   109.7800468 425.094400
   1308   1311   1312     1   109.5600471 388.275200
   1308   1311   1313     1   109.5600471 388.275200
   1309   1308   1311     1   109.8000471 387.438400
   1309   1308   1310     1   107.5800459 329.699200
   1310   1308   1311     1   109.8000471 387.438400
   1312   1311   1314     1   109.8800469 414.216000
   1312   1311   1313     1   108.4600466 328.025600
   1313   1311   1314     1   109.8800469 414.216000
   1314   1315   1316     1   109.8800469 414.216000
   1314   1315   1317     1   109.8800469 414.216000
   1314   1324   1325     1   109.8800469 414.216000
   1314   1324   1326     1   109.8800469 414.216000
   1315   1318   1319     1   109.8000471 387.438400
   1315   1318   1320     1   109.8000471 387.438400
   1316   1315   1318     1   109.5600471 388.275200
   1316   1315   1317     1   108.4600466 328.025600
   1317   1315   1318     1   109.5600471 388.275200
   1319   1318   1321     1   108.7700466 392.459200
   1319   1318   1320     1   107.5800459 329.699200
   1320   1318   1321     1   108.7700466 392.459200
   1324   1327   1328     1   109.8000471 387.438400
   1324   1327   1329     1   109.8000471 387.438400
   1325   1324   1327     1   109.5600471 388.275200
   1325   1324   1326     1   108.4600466 328.025600
   1326   1324   1327     1   109.5600471 388.275200
   1328   1327   1330     1   108.7700466 392.459200
   1328   1327   1329     1   107.5800459 329.699200
   1329   1327   1330     1   108.7700466 392.459200

[ dihedrals ]
;    ai     aj     ak     al funct         c0         c1         c2         c3         c4         c5
      1      2     14     26     1  0.0000000  0.6508444  3
      1      5     17     20     1  0.0000000  0.6508444  3
      1      8     11     23     1  0.0000000  0.6508444  3
      2      1      5     17     1  180.0000771  2.0083200  2
      2      1      5     17     1  0.0000000  1.2552000  3
      2      1      8     11     1  180.0000771  2.0083200  2
      2      1      8     11     1  0.0000000  1.2552000  3
      2     14     26    115     1  0.0000000  0.6508444  3
      5      1      2     14     1  180.0000771  2.0083200  2
      5      1      2     14     1  0.0000000  1.2552000  3
      5      1      8     11     1  180.0000771  2.0083200  2
      5      1      8     11     1  0.0000000  1.2552000  3
      5     17     20     57     1  0.0000000  0.6508444  3
      8      1      2     14     1  180.0000771  2.0083200  2
      8      1      2     14     1  0.0000000  1.2552000  3
      8      1      5     17     1  180.0000771  2.0083200  2
      8      1      5     17     1  0.0000000  1.2552000  3
      8     11     23     86     1  0.0000000  0.6508444  3
     11     23     86     77     1  180.0000771  0.4184000  2
     11     23     86     77     1  0.0000000  1.6024720  3
     14     26    115    106     1  180.0000771  0.4184000  2
     14     26    115    106     1  0.0000000  1.6024720  3
     17     20     57     48     1  180.0000771  0.4184000  2
     17     20     57     48     1  0.0000000  1.6024720  3
     20     57     48     39     1  180.0000771  0.4184000  2
     20     57     48     39     1  0.0000000  1.6024720  3
     23     86     77     68     1  180.0000771  0.4184000  2
     23     86     77     68     1  0.0000000  1.6024720  3
     26    115    106     97     1  180.0000771  0.4184000  2
     26    115    106     97     1  0.0000000  1.6024720  3
     29     30     42     54     1  0.0000000  0.6508444  3
     29     33     45     51     1  0.0000000  0.6508444  3
     29     36     39     48     1  0.0000000  0.6508444  3
     30     29     33     45     1  180.0000771  2.0083200  2
     30     29     33     45     1  0.0000000  1.2552000  3
     30     29     36     39     1  180.0000771  2.0083200  2
     30     29     36     39     1  0.0000000  1.2552000  3
     30     42     54    173     1  0.0000000  0.6508444  3
     33     29     30     42     1  180.0000771  2.0083200  2
     33     29     30     42     1  0.0000000  1.2552000  3
     33     29     36     39     1  180.0000771  2.0083200  2
     33     29     36     39     1  0.0000000  1.2552000  3
     33     45     51    144     1  0.0000000  0.6508444  3
     36     29     30     42     1  180.0000771  2.0083200  2
     36     29     30     42     1  0.0000000  1.2552000  3
     36     29     33     45     1  180.0000771  2.0083200  2
     36     29     33     45     1  0.0000000  1.2552000  3
     36     39     48     57     1  0.0000000  0.6508444  3
     42     54    173    164     1  180.0000771  0.4184000  2
     42     54    173    164     1  0.0000000  1.6024720  3
     45     51    144    135     1  180.0000771  0.4184000  2
     45     51    144    135     1  0.0000000  1.6024720  3
     51    144    135    126     1  180.0000771  0.4184000  2
     51    144    135    126     1  0.0000000  1.6024720  3
     54    173    164    155     1  180.0000771  0.4184000  2
     54    173    164    155     1  0.0000000  1.6024720  3
     58     59     71     83     1  0.0000000  0.6508444  3
     58     62     74     80     1  0.0000000  0.6508444  3
     58     65     68     77     1  0.0000000  0.6508444  3
     59     58     62     74     1  180.0000771  2.0083200  2
     59     58     62     74     1  0.0000000  1.2552000  3
     59     58     65     68     1  180.0000771  2.0083200  2
     59     58     65     68     1  0.0000000  1.2552000  3
     59     71     83    231     1  0.0000000  0.6508444  3
     62     58     59     71     1  180.0000771  2.0083200  2
     62     58     59     71     1  0.0000000  1.2552000  3
     62     58     65     68     1  180.0000771  2.0083200  2
     62     58     65     68     1  0.0000000  1.2552000  3
     62     74     80    202     1  0.0000000  0.6508444  3
     65     58     59     71     1  180.0000771  2.0083200  2
     65     58     59     71     1  0.0000000  1.2552000  3
     65     58     62     74     1  180.0000771  2.0083200  2
     65     58     62     74     1  0.0000000  1.2552000  3
     65     68     77     86     1  0.0000000  0.6508444  3
     71     83    231    222     1  180.0000771  0.4184000  2
     71     83    231    222     1  0.0000000  1.6024720  3
     74     80    202    193     1  180.0000771  0.4184000  2
     74     80    202    193     1  0.0000000  1.6024720  3
     80    202    193    184     1  180.0000771  0.4184000  2
     80    202    193    184     1  0.0000000  1.6024720  3
     83    231    222    213     1  180.0000771  0.4184000  2
     83    231    222    213     1  0.0000000  1.6024720  3
     87     88    100    112     1  0.0000000  0.6508444  3
     87     91    103    109     1  0.0000000  0.6508444  3
     87     94     97    106     1  0.0000000  0.6508444  3
     88     87     91    103     1  180.0000771  2.0083200  2
     88     87     91    103     1  0.0000000  1.2552000  3
     88     87     94     97     1  180.0000771  2.0083200  2
     88     87     94     97     1  0.0000000  1.2552000  3
     88    100    112    289     1  0.0000000  0.6508444  3
     91     87     88    100     1  180.0000771  2.0083200  2
     91     87     88    100     1  0.0000000  1.2552000  3
     91     87     94     97     1  180.0000771  2.0083200  2
     91     87     94     97     1  0.0000000  1.2552000  3
     91    103    109    260     1  0.0000000  0.6508444  3
     94     87     88    100     1  180.0000771  2.0083200  2
     94     87     88    100     1  0.0000000  1.2552000  3
     94     87     91    103     1  180.0000771  2.0083200  2
     94     87     91    103     1  0.0000000  1.2552000  3
     94     97    106    115     1  0.0000000  0.6508444  3
    100    112    289    280     1  180.0000771  0.4184000  2
    100    112    289    280     1  0.0000000  1.6024720  3
    103    109    260    251     1  180.0000771  0.4184000  2
    103    109    260    251     1  0.0000000  1.6024720  3
    109    260    251    242     1  180.0000771  0.4184000  2
    109    260    251    242     1  0.0000000  1.6024720  3
    112    289    280    271     1  180.0000771  0.4184000  2
    112    289    280    271     1  0.0000000  1.6024720  3
    116    117    129    141     1  0.0000000  0.6508444  3
    116    120    132    138     1  0.0000000  0.6508444  3
    116    123    126    135     1  0.0000000  0.6508444  3
    117    116    120    132     1  180.0000771  2.0083200  2
    117    116    120    132     1  0.0000000  1.2552000  3
    117    116    123    126     1  180.0000771  2.0083200  2
    117    116    123    126     1  0.0000000  1.2552000  3
    117    129    141    347     1  0.0000000  0.6508444  3
    120    116    117    129     1  180.0000771  2.0083200  2
    120    116    117    129     1  0.0000000  1.2552000  3
    120    116    123    126     1  180.0000771  2.0083200  2
    120    116    123    126     1  0.0000000  1.2552000  3
    120    132    138    318     1  0.0000000  0.6508444  3
    123    116    117    129     1  180.0000771  2.0083200  2
    123    116    117    129     1  0.0000000  1.2552000  3
    123    116    120    132     1  180.0000771  2.0083200  2
    123    116    120    132     1  0.0000000  1.2552000  3
    123    126    135    144     1  0.0000000  0.6508444  3
    129    141    347    338     1  180.0000771  0.4184000  2
    129    141    347    338     1  0.0000000  1.6024720  3
    132    138    318    309     1  180.0000771  0.4184000  2
    132    138    318    309     1  0.0000000  1.6024720  3
    138    318    309    300     1  180.0000771  0.4184000  2
    138    318    309    300     1  0.0000000  1.6024720  3
    141    347    338    329     1  180.0000771  0.4184000  2
    141    347    338    329     1  0.0000000  1.6024720  3
    145    146    158    170     1  0.0000000  0.6508444  3
    145    149    161    167     1  0.0000000  0.6508444  3
    145    152    155    164     1  0.0000000  0.6508444  3
    146    145    149    161     1  180.0000771  2.0083200  2
    146    145    149    161     1  0.0000000  1.2552000  3
    146    145    152    155     1  180.0000771  2.0083200  2
    146    145    152    155     1  0.0000000  1.2552000  3
    146    158    170    405     1  0.0000000  0.6508444  3
    149    145    146    158     1  180.0000771  2.0083200  2
    149    145    146    158     1  0.0000000  1.2552000  3
    149    145    152    155     1  180.0000771  2.0083200  2
    149    145    152    155     1  0.0000000  1.2552000  3
    149    161    167    376     1  0.0000000  0.6508444  3
    152    145    146    158     1  180.0000771  2.0083200  2
    152    145    146    158     1  0.0000000  1.2552000  3
    152    145    149    161     1  180.0000771  2.0083200  2
    152    145    149    161     1  0.0000000  1.2552000  3
    152    155    164    173     1  0.0000000  0.6508444  3
    158    170    405    396     1  180.0000771  0.4184000  2
    158    170    405    396     1  0.0000000  1.6024720  3
    161    167    376    367     1  180.0000771  0.4184000  2
    161    167    376    367     1  0.0000000  1.6024720  3
    167    376    367    358     1  180.0000771  0.4184000  2
    167    376    367    358     1  0.0000000  1.6024720  3
    170    405    396    387     1  180.0000771  0.4184000  2
    170    405    396    387     1  0.0000000  1.6024720  3
    174    175    187    199     1  0.0000000  0.6508444  3
    174    178    190    196     1  0.0000000  0.6508444  3
    174    181    184    193     1  0.0000000  0.6508444  3
    175    174    178    190     1  180.0000771  2.0083200  2
    175    174    178    190     1  0.0000000  1.2552000  3
    175    174    181    184     1  180.0000771  2.0083200  2
    175    174    181    184     1  0.0000000  1.2552000  3
    175    187    199    463     1  0.0000000  0.6508444  3
    178    174    175    187     1  180.0000771  2.0083200  2
    178    174    175    187     1  0.0000000  1.2552000  3
    178    174    181    184     1  180.0000771  2.0083200  2
    178    174    181    184     1  0.0000000  1.2552000  3
    178    190    196    434     1  0.0000000  0.6508444  3
    181    174    175    187     1  180.0000771  2.0083200  2
    181    174    175    187     1  0.0000000  1.2552000  3
    181    174    178    190     1  180.0000771  2.0083200  2
    181    174    178    190     1  0.0000000  1.2552000  3
    181    184    193    202     1  0.0000000  0.6508444  3
    187    199    463    454     1  180.0000771  0.4184000  2
    187    199    463    454     1  0.0000000  1.6024720  3
    190    196    434    425     1  180.0000771  0.4184000  2
    190    196    434    425     1  0.0000000  1.6024720  3
    196    434    425    416     1  180.0000771  0.4184000  2
    196    434    425    416     1  0.0000000  1.6024720  3
    199    463    454    445     1  180.0000771  0.4184000  2
    199    463    454    445     1  0.0000000  1.6024720  3
    203    204    216    228     1  0.0000000  0.6508444  3
    203    207    219    225     1  0.0000000  0.6508444  3
    203    210    213    222     1  0.0000000  0.6508444  3
    204    203    207    219     1  180.0000771  2.0083200  2
    204    203    207    219     1  0.0000000  1.2552000  3
    204    203    210    213     1  180.0000771  2.0083200  2
    204    203    210    213     1  0.0000000  1.2552000  3
    204    216    228    521     1  0.0000000  0.6508444  3
    207    203    204    216     1  180.0000771  2.0083200  2
    207    203    204    216     1  0.0000000  1.2552000  3
    207    203    210    213     1  180.0000771  2.0083200  2
    207    203    210    213     1  0.0000000  1.2552000  3
    207    219    225    492     1  0.0000000  0.6508444  3
    210    203    204    216     1  180.0000771  2.0083200  2
    210    203    204    216     1  0.0000000  1.2552000  3
    210    203    207    219     1  180.0000771  2.0083200  2
    210    203    207    219     1  0.0000000  1.2552000  3
    210    213    222    231     1  0.0000000  0.6508444  3
    216    228    521    512     1  180.0000771  0.4184000  2
    216    228    521    512     1  0.0000000  1.6024720  3
    219    225    492    483     1  180.0000771  0.4184000  2
    219    225    492    483     1  0.0000000  1.6024720  3
    225    492    483    474     1  180.0000771  0.4184000  2
    225    492    483    474     1  0.0000000  1.6024720  3
    228    521    512    503     1  180.0000771  0.4184000  2
    228    521    512    503     1  0.0000000  1.6024720  3
    232    233    245    257     1  0.0000000  0.6508444  3
    232    236    248    254     1  0.0000000  0.6508444  3
    232    239    242    251     1  0.0000000  0.6508444  3
    233    232    236    248     1  180.0000771  2.0083200  2
    233    232    236    248     1  0.0000000  1.2552000  3
    233    232    239    242     1  180.0000771  2.0083200  2
    233    232    239    242     1  0.0000000  1.2552000  3
    233    245    257    579     1  0.0000000  0.6508444  3
    236    232    233    245     1  180.0000771  2.0083200  2
    236    232    233    245     1  0.0000000  1.2552000  3
    236    232    239    242     1  180.0000771  2.0083200  2
    236    232    239    242     1  0.0000000  1.2552000  3
    236    248    254    550     1  0.0000000  0.6508444  3
    239    232    233    245     1  180.0000771  2.0083200  2
    239    232    233    245     1  0.0000000  1.2552000  3
    239    232    236    248     1  180.0000771  2.0083200  2
    239    232    236    248     1  0.0000000  1.2552000  3
    239    242    251    260     1  0.0000000  0.6508444  3
    245    257    579    570     1  180.0000771  0.4184000  2
    245    257    579    570     1  0.0000000  1.6024720  3
    248    254    550    541     1  180.0000771  0.4184000  2
    248    254    550    541     1  0.0000000  1.6024720  3
    254    550    541    532     1  180.0000771  0.4184000  2
    254    550    541    532     1  0.0000000  1.6024720  3
    257    579    570    561     1  180.0000771  0.4184000  2
    257    579    570    561     1  0.0000000  1.6024720  3
    261    262    274    286     1  0.0000000  0.6508444  3
    261    265    277    283     1  0.0000000  0.6508444  3
    261    268    271    280     1  0.0000000  0.6508444  3
    262    261    265    277     1  180.0000771  2.0083200  2
    262    261    265    277     1  0.0000000  1.2552000  3
    262    261    268    271     1  180.0000771  2.0083200  2
    262    261    268    271     1  0.0000000  1.2552000  3
    262    274    286    637     1  0.0000000  0.6508444  3
    265    261    262    274     1  180.0000771  2.0083200  2
    265    261    262    274     1  0.0000000  1.2552000  3
    265    261    268    271     1  180.0000771  2.0083200  2
    265    261    268    271     1  0.0000000  1.2552000  3
    265    277    283    608     1  0.0000000  0.6508444  3
    268    261    262    274     1  180.0000771  2.0083200  2
    268    261    262    274     1  0.0000000  1.2552000  3
    268    261    265    277     1  180.0000771  2.0083200  2
    268    261    265    277     1  0.0000000  1.2552000  3
    268    271    280    289     1  0.0000000  0.6508444  3
    274    286    637    628     1  180.0000771  0.4184000  2
    274    286    637    628     1  0.0000000  1.6024720  3
    277    283    608    599     1  180.0000771  0.4184000  2
    277    283    608    599     1  0.0000000  1.6024720  3
    283    608    599    590     1  180.0000771  0.4184000  2
    283    608    599    590     1  0.0000000  1.6024720  3
    286    637    628    619     1  180.0000771  0.4184000  2
    286    637    628    619     1  0.0000000  1.6024720  3
    290    291    303    315     1  0.0000000  0.6508444  3
    290    294    306    312     1  0.0000000  0.6508444  3
    290    297    300    309     1  0.0000000  0.6508444  3
    291    290    294    306     1  180.0000771  2.0083200  2
    291    290    294    306     1  0.0000000  1.2552000  3
    291    290    297    300     1  180.0000771  2.0083200  2
    291    290    297    300     1  0.0000000  1.2552000  3
    291    303    315    695     1  0.0000000  0.6508444  3
    294    290    291    303     1  180.0000771  2.0083200  2
    294    290    291    303     1  0.0000000  1.2552000  3
    294    290    297    300     1  180.0000771  2.0083200  2
    294    290    297    300     1  0.0000000  1.2552000  3
    294    306    312    666     1  0.0000000  0.6508444  3
    297    290    291    303     1  180.0000771  2.0083200  2
    297    290    291    303     1  0.0000000  1.2552000  3
    297    290    294    306     1  180.0000771  2.0083200  2
    297    290    294    306     1  0.0000000  1.2552000  3
    297    300    309    318     1  0.0000000  0.6508444  3
    303    315    695    667     1  180.0000771  0.4184000  2
    303    315    695    667     1  0.0000000  1.6024720  3
    306    312    666    638     1  180.0000771  0.4184000  2
    306    312    666    638     1  0.0000000  1.6024720  3
    312    666    638    641     1  180.0000771  0.4184000  2
    312    666    638    641     1  0.0000000  1.6024720  3
    315    695    667    670     1  180.0000771  0.4184000  2
    315    695    667    670     1  0.0000000  1.6024720  3
    319    320    332    344     1  0.0000000  0.6508444  3
    319    323    335    341     1  0.0000000  0.6508444  3
    319    326    329    338     1  0.0000000  0.6508444  3
    320    319    323    335     1  180.0000771  2.0083200  2
    320    319    323    335     1  0.0000000  1.2552000  3
    320    319    326    329     1  180.0000771  2.0083200  2
    320    319    326    329     1  0.0000000  1.2552000  3
    320    332    344    753     1  0.0000000  0.6508444  3
    323    319    320    332     1  180.0000771  2.0083200  2
    323    319    320    332     1  0.0000000  1.2552000  3
    323    319    326    329     1  180.0000771  2.0083200  2
    323    319    326    329     1  0.0000000  1.2552000  3
    323    335    341    724     1  0.0000000  0.6508444  3
    326    319    320    332     1  180.0000771  2.0083200  2
    326    319    320    332     1  0.0000000  1.2552000  3
    326    319    323    335     1  180.0000771  2.0083200  2
    326    319    323    335     1  0.0000000  1.2552000  3
    326    329    338    347     1  0.0000000  0.6508444  3
    332    344    753    725     1  180.0000771  0.4184000  2
    332    344    753    725     1  0.0000000  1.6024720  3
    335    341    724    696     1  180.0000771  0.4184000  2
    335    341    724    696     1  0.0000000  1.6024720  3
    341    724    696    699     1  180.0000771  0.4184000  2
    341    724    696    699     1  0.0000000  1.6024720  3
    344    753    725    728     1  180.0000771  0.4184000  2
    344    753    725    728     1  0.0000000  1.6024720  3
    348    349    361    373     1  0.0000000  0.6508444  3
    348    352    364    370     1  0.0000000  0.6508444  3
    348    355    358    367     1  0.0000000  0.6508444  3
    349    348    352    364     1  180.0000771  2.0083200  2
    349    348    352    364     1  0.0000000  1.2552000  3
    349    348    355    358     1  180.0000771  2.0083200  2
    349    348    355    358     1  0.0000000  1.2552000  3
    349    361    373    811     1  0.0000000  0.6508444  3
    352    348    349    361     1  180.0000771  2.0083200  2
    352    348    349    361     1  0.0000000  1.2552000  3
    352    348    355    358     1  180.0000771  2.0083200  2
    352    348    355    358     1  0.0000000  1.2552000  3
    352    364    370    782     1  0.0000000  0.6508444  3
    355    348    349    361     1  180.0000771  2.0083200  2
    355    348    349    361     1  0.0000000  1.2552000  3
    355    348    352    364     1  180.0000771  2.0083200  2
    355    348    352    364     1  0.0000000  1.2552000  3
    355    358    367    376     1  0.0000000  0.6508444  3
    361    373    811    783     1  180.0000771  0.4184000  2
    361    373    811    783     1  0.0000000  1.6024720  3
    364    370    782    754     1  180.0000771  0.4184000  2
    364    370    782    754     1  0.0000000  1.6024720  3
    370    782    754    757     1  180.0000771  0.4184000  2
    370    782    754    757     1  0.0000000  1.6024720  3
    373    811    783    786     1  180.0000771  0.4184000  2
    373    811    783    786     1  0.0000000  1.6024720  3
    377    378    390    402     1  0.0000000  0.6508444  3
    377    381    393    399     1  0.0000000  0.6508444  3
    377    384    387    396     1  0.0000000  0.6508444  3
    378    377    381    393     1  180.0000771  2.0083200  2
    378    377    381    393     1  0.0000000  1.2552000  3
    378    377    384    387     1  180.0000771  2.0083200  2
    378    377    384    387     1  0.0000000  1.2552000  3
    378    390    402    869     1  0.0000000  0.6508444  3
    381    377    378    390     1  180.0000771  2.0083200  2
    381    377    378    390     1  0.0000000  1.2552000  3
    381    377    384    387     1  180.0000771  2.0083200  2
    381    377    384    387     1  0.0000000  1.2552000  3
    381    393    399    840     1  0.0000000  0.6508444  3
    384    377    378    390     1  180.0000771  2.0083200  2
    384    377    378    390     1  0.0000000  1.2552000  3
    384    377    381    393     1  180.0000771  2.0083200  2
    384    377    381    393     1  0.0000000  1.2552000  3
    384    387    396    405     1  0.0000000  0.6508444  3
    390    402    869    841     1  180.0000771  0.4184000  2
    390    402    869    841     1  0.0000000  1.6024720  3
    393    399    840    812     1  180.0000771  0.4184000  2
    393    399    840    812     1  0.0000000  1.6024720  3
    399    840    812    815     1  180.0000771  0.4184000  2
    399    840    812    815     1  0.0000000  1.6024720  3
    402    869    841    844     1  180.0000771  0.4184000  2
    402    869    841    844     1  0.0000000  1.6024720  3
    406    407    419    431     1  0.0000000  0.6508444  3
    406    410    422    428     1  0.0000000  0.6508444  3
    406    413    416    425     1  0.0000000  0.6508444  3
    407    406    410    422     1  180.0000771  2.0083200  2
    407    406    410    422     1  0.0000000  1.2552000  3
    407    406    413    416     1  180.0000771  2.0083200  2
    407    406    413    416     1  0.0000000  1.2552000  3
    407    419    431    927     1  0.0000000  0.6508444  3
    410    406    407    419     1  180.0000771  2.0083200  2
    410    406    407    419     1  0.0000000  1.2552000  3
    410    406    413    416     1  180.0000771  2.0083200  2
    410    406    413    416     1  0.0000000  1.2552000  3
    410    422    428    898     1  0.0000000  0.6508444  3
    413    406    407    419     1  180.0000771  2.0083200  2
    413    406    407    419     1  0.0000000  1.2552000  3
    413    406    410    422     1  180.0000771  2.0083200  2
    413    406    410    422     1  0.0000000  1.2552000  3
    413    416    425    434     1  0.0000000  0.6508444  3
    419    431    927    899     1  180.0000771  0.4184000  2
    419    431    927    899     1  0.0000000  1.6024720  3
    422    428    898    870     1  180.0000771  0.4184000  2
    422    428    898    870     1  0.0000000  1.6024720  3
    428    898    870    873     1  180.0000771  0.4184000  2
    428    898    870    873     1  0.0000000  1.6024720  3
    431    927    899    902     1  180.0000771  0.4184000  2
    431    927    899    902     1  0.0000000  1.6024720  3
    435    436    448    460     1  0.0000000  0.6508444  3
    435    439    451    457     1  0.0000000  0.6508444  3
    435    442    445    454     1  0.0000000  0.6508444  3
    436    435    439    451     1  180.0000771  2.0083200  2
    436    435    439    451     1  0.0000000  1.2552000  3
    436    435    442    445     1  180.0000771  2.0083200  2
    436    435    442    445     1  0.0000000  1.2552000  3
    436    448    460    985     1  0.0000000  0.6508444  3
    439    435    436    448     1  180.0000771  2.0083200  2
    439    435    436    448     1  0.0000000  1.2552000  3
    439    435    442    445     1  180.0000771  2.0083200  2
    439    435    442    445     1  0.0000000  1.2552000  3
    439    451    457    956     1  0.0000000  0.6508444  3
    442    435    436    448     1  180.0000771  2.0083200  2
    442    435    436    448     1  0.0000000  1.2552000  3
    442    435    439    451     1  180.0000771  2.0083200  2
    442    435    439    451     1  0.0000000  1.2552000  3
    442    445    454    463     1  0.0000000  0.6508444  3
    448    460    985    957     1  180.0000771  0.4184000  2
    448    460    985    957     1  0.0000000  1.6024720  3
    451    457    956    928     1  180.0000771  0.4184000  2
    451    457    956    928     1  0.0000000  1.6024720  3
    457    956    928    931     1  180.0000771  0.4184000  2
    457    956    928    931     1  0.0000000  1.6024720  3
    460    985    957    960     1  180.0000771  0.4184000  2
    460    985    957    960     1  0.0000000  1.6024720  3
    464    465    477    489     1  0.0000000  0.6508444  3
    464    468    480    486     1  0.0000000  0.6508444  3
    464    471    474    483     1  0.0000000  0.6508444  3
    465    464    468    480     1  180.0000771  2.0083200  2
    465    464    468    480     1  0.0000000  1.2552000  3
    465    464    471    474     1  180.0000771  2.0083200  2
    465    464    471    474     1  0.0000000  1.2552000  3
    465    477    489   1043     1  0.0000000  0.6508444  3
    468    464    465    477     1  180.0000771  2.0083200  2
    468    464    465    477     1  0.0000000  1.2552000  3
    468    464    471    474     1  180.0000771  2.0083200  2
    468    464    471    474     1  0.0000000  1.2552000  3
    468    480    486   1014     1  0.0000000  0.6508444  3
    471    464    465    477     1  180.0000771  2.0083200  2
    471    464    465    477     1  0.0000000  1.2552000  3
    471    464    468    480     1  180.0000771  2.0083200  2
    471    464    468    480     1  0.0000000  1.2552000  3
    471    474    483    492     1  0.0000000  0.6508444  3
    477    489   1043   1015     1  180.0000771  0.4184000  2
    477    489   1043   1015     1  0.0000000  1.6024720  3
    480    486   1014    986     1  180.0000771  0.4184000  2
    480    486   1014    986     1  0.0000000  1.6024720  3
    486   1014    986    989     1  180.0000771  0.4184000  2
    486   1014    986    989     1  0.0000000  1.6024720  3
    489   1043   1015   1018     1  180.0000771  0.4184000  2
    489   1043   1015   1018     1  0.0000000  1.6024720  3
    493    494    506    518     1  0.0000000  0.6508444  3
    493    497    509    515     1  0.0000000  0.6508444  3
    493    500    503    512     1  0.0000000  0.6508444  3
    494    493    497    509     1  180.0000771  2.0083200  2
    494    493    497    509     1  0.0000000  1.2552000  3
    494    493    500    503     1  180.0000771  2.0083200  2
    494    493    500    503     1  0.0000000  1.2552000  3
    494    506    518   1101     1  0.0000000  0.6508444  3
    497    493    494    506     1  180.0000771  2.0083200  2
    497    493    494    506     1  0.0000000  1.2552000  3
    497    493    500    503     1  180.0000771  2.0083200  2
    497    493    500    503     1  0.0000000  1.2552000  3
    497    509    515   1072     1  0.0000000  0.6508444  3
    500    493    494    506     1  180.0000771  2.0083200  2
    500    493    494    506     1  0.0000000  1.2552000  3
    500    493    497    509     1  180.0000771  2.0083200  2
    500    493    497    509     1  0.0000000  1.2552000  3
    500    503    512    521     1  0.0000000  0.6508444  3
    506    518   1101   1073     1  180.0000771  0.4184000  2
    506    518   1101   1073     1  0.0000000  1.6024720  3
    509    515   1072   1044     1  180.0000771  0.4184000  2
    509    515   1072   1044     1  0.0000000  1.6024720  3
    515   1072   1044   1047     1  180.0000771  0.4184000  2
    515   1072   1044   1047     1  0.0000000  1.6024720  3
    518   1101   1073   1076     1  180.0000771  0.4184000  2
    518   1101   1073   1076     1  0.0000000  1.6024720  3
    522    523    535    547     1  0.0000000  0.6508444  3
    522    526    538    544     1  0.0000000  0.6508444  3
    522    529    532    541     1  0.0000000  0.6508444  3
    523    522    526    538     1  180.0000771  2.0083200  2
    523    522    526    538     1  0.0000000  1.2552000  3
    523    522    529    532     1  180.0000771  2.0083200  2
    523    522    529    532     1  0.0000000  1.2552000  3
    523    535    547   1159     1  0.0000000  0.6508444  3
    526    522    523    535     1  180.0000771  2.0083200  2
    526    522    523    535     1  0.0000000  1.2552000  3
    526    522    529    532     1  180.0000771  2.0083200  2
    526    522    529    532     1  0.0000000  1.2552000  3
    526    538    544   1130     1  0.0000000  0.6508444  3
    529    522    523    535     1  180.0000771  2.0083200  2
    529    522    523    535     1  0.0000000  1.2552000  3
    529    522    526    538     1  180.0000771  2.0083200  2
    529    522    526    538     1  0.0000000  1.2552000  3
    529    532    541    550     1  0.0000000  0.6508444  3
    535    547   1159   1131     1  180.0000771  0.4184000  2
    535    547   1159   1131     1  0.0000000  1.6024720  3
    538    544   1130   1102     1  180.0000771  0.4184000  2
    538    544   1130   1102     1  0.0000000  1.6024720  3
    544   1130   1102   1105     1  180.0000771  0.4184000  2
    544   1130   1102   1105     1  0.0000000  1.6024720  3
    547   1159   1131   1134     1  180.0000771  0.4184000  2
    547   1159   1131   1134     1  0.0000000  1.6024720  3
    551    552    564    576     1  0.0000000  0.6508444  3
    551    555    567    573     1  0.0000000  0.6508444  3
    551    558    561    570     1  0.0000000  0.6508444  3
    552    551    555    567     1  180.0000771  2.0083200  2
    552    551    555    567     1  0.0000000  1.2552000  3
    552    551    558    561     1  180.0000771  2.0083200  2
    552    551    558    561     1  0.0000000  1.2552000  3
    552    564    576   1217     1  0.0000000  0.6508444  3
    555    551    552    564     1  180.0000771  2.0083200  2
    555    551    552    564     1  0.0000000  1.2552000  3
    555    551    558    561     1  180.0000771  2.0083200  2
    555    551    558    561     1  0.0000000  1.2552000  3
    555    567    573   1188     1  0.0000000  0.6508444  3
    558    551    552    564     1  180.0000771  2.0083200  2
    558    551    552    564     1  0.0000000  1.2552000  3
    558    551    555    567     1  180.0000771  2.0083200  2
    558    551    555    567     1  0.0000000  1.2552000  3
    558    561    570    579     1  0.0000000  0.6508444  3
    564    576   1217   1189     1  180.0000771  0.4184000  2
    564    576   1217   1189     1  0.0000000  1.6024720  3
    567    573   1188   1160     1  180.0000771  0.4184000  2
    567    573   1188   1160     1  0.0000000  1.6024720  3
    573   1188   1160   1163     1  180.0000771  0.4184000  2
    573   1188   1160   1163     1  0.0000000  1.6024720  3
    576   1217   1189   1192     1  180.0000771  0.4184000  2
    576   1217   1189   1192     1  0.0000000  1.6024720  3
    580    581    593    605     1  0.0000000  0.6508444  3
    580    584    596    602     1  0.0000000  0.6508444  3
    580    587    590    599     1  0.0000000  0.6508444  3
    581    580    584    596     1  180.0000771  2.0083200  2
    581    580    584    596     1  0.0000000  1.2552000  3
    581    580    587    590     1  180.0000771  2.0083200  2
    581    580    587    590     1  0.0000000  1.2552000  3
    581    593    605   1275     1  0.0000000  0.6508444  3
    584    580    581    593     1  180.0000771  2.0083200  2
    584    580    581    593     1  0.0000000  1.2552000  3
    584    580    587    590     1  180.0000771  2.0083200  2
    584    580    587    590     1  0.0000000  1.2552000  3
    584    596    602   1246     1  0.0000000  0.6508444  3
    587    580    581    593     1  180.0000771  2.0083200  2
    587    580    581    593     1  0.0000000  1.2552000  3
    587    580    584    596     1  180.0000771  2.0083200  2
    587    580    584    596     1  0.0000000  1.2552000  3
    587    590    599    608     1  0.0000000  0.6508444  3
    593    605   1275   1247     1  180.0000771  0.4184000  2
    593    605   1275   1247     1  0.0000000  1.6024720  3
    596    602   1246   1218     1  180.0000771  0.4184000  2
    596    602   1246   1218     1  0.0000000  1.6024720  3
    602   1246   1218   1221     1  180.0000771  0.4184000  2
    602   1246   1218   1221     1  0.0000000  1.6024720  3
    605   1275   1247   1250     1  180.0000771  0.4184000  2
    605   1275   1247   1250     1  0.0000000  1.6024720  3
    609    610    622    634     1  0.0000000  0.6508444  3
    609    613    625    631     1  0.0000000  0.6508444  3
    609    616    619    628     1  0.0000000  0.6508444  3
    610    609    613    625     1  180.0000771  2.0083200  2
    610    609    613    625     1  0.0000000  1.2552000  3
    610    609    616    619     1  180.0000771  2.0083200  2
    610    609    616    619     1  0.0000000  1.2552000  3
    610    622    634   1333     1  0.0000000  0.6508444  3
    613    609    610    622     1  180.0000771  2.0083200  2
    613    609    610    622     1  0.0000000  1.2552000  3
    613    609    616    619     1  180.0000771  2.0083200  2
    613    609    616    619     1  0.0000000  1.2552000  3
    613    625    631   1304     1  0.0000000  0.6508444  3
    616    609    610    622     1  180.0000771  2.0083200  2
    616    609    610    622     1  0.0000000  1.2552000  3
    616    609    613    625     1  180.0000771  2.0083200  2
    616    609    613    625     1  0.0000000  1.2552000  3
    616    619    628    637     1  0.0000000  0.6508444  3
    622    634   1333   1305     1  180.0000771  0.4184000  2
    622    634   1333   1305     1  0.0000000  1.6024720  3
    625    631   1304   1276     1  180.0000771  0.4184000  2
    625    631   1304   1276     1  0.0000000  1.6024720  3
    631   1304   1276   1279     1  180.0000771  0.4184000  2
    631   1304   1276   1279     1  0.0000000  1.6024720  3
    634   1333   1305   1308     1  180.0000771  0.4184000  2
    634   1333   1305   1308     1  0.0000000  1.6024720  3
    638    641    644    647     1  0.0000000  0.6508444  3
    641    644    647    648     1  180.0000771  2.0083200  2
    641    644    647    648     1  0.0000000  1.2552000  3
    641    644    647    657     1  180.0000771  2.0083200  2
    641    644    647    657     1  0.0000000  1.2552000  3
    644    641    638    666     1  0.0000000  0.6508444  3
    644    647    648    651     1  180.0000771  2.0083200  2
    644    647    648    651     1  0.0000000  1.2552000  3
    644    647    657    660     1  180.0000771  2.0083200  2
    644    647    657    660     1  0.0000000  1.2552000  3
    647    648    651    654     1  0.0000000  0.6508444  3
    647    657    660    663     1  0.0000000  0.6508444  3
    648    647    657    660     1  180.0000771  2.0083200  2
    648    647    657    660     1  0.0000000  1.2552000  3
    648    651    654    655     1  180.0000771  0.0000000  2
    648    651    654    656     1  180.0000771  0.0000000  2
    651    648    647    657     1  180.0000771  2.0083200  2
    651    648    647    657     1  0.0000000  1.2552000  3
    657    660    663    664     1  180.0000771  0.0000000  2
    657    660    663    665     1  180.0000771  0.0000000  2
    667    670    673    676     1  0.0000000  0.6508444  3
    670    673    676    677     1  180.0000771  2.0083200  2
    670    673    676    677     1  0.0000000  1.2552000  3
    670    673    676    686     1  180.0000771  2.0083200  2
    670    673    676    686     1  0.0000000  1.2552000  3
    673    676    677    680     1  180.0000771  2.0083200  2
    673    676    677    680     1  0.0000000  1.2552000  3
    673    676    686    689     1  180.0000771  2.0083200  2
    673    676    686    689     1  0.0000000  1.2552000  3
    673    670    667    695     1  0.0000000  0.6508444  3
    676    677    680    683     1  0.0000000  0.6508444  3
    676    686    689    692     1  0.0000000  0.6508444  3
    677    680    683    684     1  180.0000771  0.0000000  2
    677    680    683    685     1  180.0000771  0.0000000  2
    677    676    686    689     1  180.0000771  2.0083200  2
    677    676    686    689     1  0.0000000  1.2552000  3
    680    677    676    686     1  180.0000771  2.0083200  2
    680    677    676    686     1  0.0000000  1.2552000  3
    686    689    692    693     1  180.0000771  0.0000000  2
    686    689    692    694     1  180.0000771  0.0000000  2
    696    699    702    705     1  0.0000000  0.6508444  3
    699    702    705    706     1  180.0000771  2.0083200  2
    699    702    705    706     1  0.0000000  1.2552000  3
    699    702    705    715     1  180.0000771  2.0083200  2
    699    702    705    715     1  0.0000000  1.2552000  3
    702    699    696    724     1  0.0000000  0.6508444  3
    702    705    706    709     1  180.0000771  2.0083200  2
    702    705    706    709     1  0.0000000  1.2552000  3
    702    705    715    718     1  180.0000771  2.0083200  2
    702    705    715    718     1  0.0000000  1.2552000  3
    705    706    709    712     1  0.0000000  0.6508444  3
    705    715    718    721     1  0.0000000  0.6508444  3
    706    705    715    718     1  180.0000771  2.0083200  2
    706    705    715    718     1  0.0000000  1.2552000  3
    706    709    712    713     1  180.0000771  0.0000000  2
    706    709    712    714     1  180.0000771  0.0000000  2
    709    706    705    715     1  180.0000771  2.0083200  2
    709    706    705    715     1  0.0000000  1.2552000  3
    715    718    721    722     1  180.0000771  0.0000000  2
    715    718    721    723     1  180.0000771  0.0000000  2
    725    728    731    734     1  0.0000000  0.6508444  3
    728    731    734    735     1  180.0000771  2.0083200  2
    728    731    734    735     1  0.0000000  1.2552000  3
    728    731    734    744     1  180.0000771  2.0083200  2
    728    731    734    744     1  0.0000000  1.2552000  3
    731    734    735    738     1  180.0000771  2.0083200  2
    731    734    735    738     1  0.0000000  1.2552000  3
    731    734    744    747     1  180.0000771  2.0083200  2
    731    734    744    747     1  0.0000000  1.2552000  3
    731    728    725    753     1  0.0000000  0.6508444  3
    734    735    738    741     1  0.0000000  0.6508444  3
    734    744    747    750     1  0.0000000  0.6508444  3
    735    738    741    742     1  180.0000771  0.0000000  2
    735    738    741    743     1  180.0000771  0.0000000  2
    735    734    744    747     1  180.0000771  2.0083200  2
    735    734    744    747     1  0.0000000  1.2552000  3
    738    735    734    744     1  180.0000771  2.0083200  2
    738    735    734    744     1  0.0000000  1.2552000  3
    744    747    750    751     1  180.0000771  0.0000000  2
    744    747    750    752     1  180.0000771  0.0000000  2
    754    757    760    763     1  0.0000000  0.6508444  3
    757    760    763    764     1  180.0000771  2.0083200  2
    757    760    763    764     1  0.0000000  1.2552000  3
    757    760    763    773     1  180.0000771  2.0083200  2
    757    760    763    773     1  0.0000000  1.2552000  3
    760    757    754    782     1  0.0000000  0.6508444  3
    760    763    764    767     1  180.0000771  2.0083200  2
    760    763    764    767     1  0.0000000  1.2552000  3
    760    763    773    776     1  180.0000771  2.0083200  2
    760    763    773    776     1  0.0000000  1.2552000  3
    763    764    767    770     1  0.0000000  0.6508444  3
    763    773    776    779     1  0.0000000  0.6508444  3
    764    763    773    776     1  180.0000771  2.0083200  2
    764    763    773    776     1  0.0000000  1.2552000  3
    764    767    770    771     1  180.0000771  0.0000000  2
    764    767    770    772     1  180.0000771  0.0000000  2
    767    764    763    773     1  180.0000771  2.0083200  2
    767    764    763    773     1  0.0000000  1.2552000  3
    773    776    779    780     1  180.0000771  0.0000000  2
    773    776    779    781     1  180.0000771  0.0000000  2
    783    786    789    792     1  0.0000000  0.6508444  3
    786    789    792    793     1  180.0000771  2.0083200  2
    786    789    792    793     1  0.0000000  1.2552000  3
    786    789    792    802     1  180.0000771  2.0083200  2
    786    789    792    802     1  0.0000000  1.2552000  3
    789    792    793    796     1  180.0000771  2.0083200  2
    789    792    793    796     1  0.0000000  1.2552000  3
    789    792    802    805     1  180.0000771  2.0083200  2
    789    792    802    805     1  0.0000000  1.2552000  3
    789    786    783    811     1  0.0000000  0.6508444  3
    792    793    796    799     1  0.0000000  0.6508444  3
    792    802    805    808     1  0.0000000  0.6508444  3
    793    796    799    800     1  180.0000771  0.0000000  2
    793    796    799    801     1  180.0000771  0.0000000  2
    793    792    802    805     1  180.0000771  2.0083200  2
    793    792    802    805     1  0.0000000  1.2552000  3
    796    793    792    802     1  180.0000771  2.0083200  2
    796    793    792    802     1  0.0000000  1.2552000  3
    802    805    808    809     1  180.0000771  0.0000000  2
    802    805    808    810     1  180.0000771  0.0000000  2
    812    815    818    821     1  0.0000000  0.6508444  3
    815    818    821    822     1  180.0000771  2.0083200  2
    815    818    821    822     1  0.0000000  1.2552000  3
    815    818    821    831     1  180.0000771  2.0083200  2
    815    818    821    831     1  0.0000000  1.2552000  3
    818    815    812    840     1  0.0000000  0.6508444  3
    818    821    822    825     1  180.0000771  2.0083200  2
    818    821    822    825     1  0.0000000  1.2552000  3
    818    821    831    834     1  180.0000771  2.0083200  2
    818    821    831    834     1  0.0000000  1.2552000  3
    821    822    825    828     1  0.0000000  0.6508444  3
    821    831    834    837     1  0.0000000  0.6508444  3
    822    821    831    834     1  180.0000771  2.0083200  2
    822    821    831    834     1  0.0000000  1.2552000  3
    822    825    828    829     1  180.0000771  0.0000000  2
    822    825    828    830     1  180.0000771  0.0000000  2
    825    822    821    831     1  180.0000771  2.0083200  2
    825    822    821    831     1  0.0000000  1.2552000  3
    831    834    837    838     1  180.0000771  0.0000000  2
    831    834    837    839     1  180.0000771  0.0000000  2
    841    844    847    850     1  0.0000000  0.6508444  3
    844    847    850    851     1  180.0000771  2.0083200  2
    844    847    850    851     1  0.0000000  1.2552000  3
    844    847    850    860     1  180.0000771  2.0083200  2
    844    847    850    860     1  0.0000000  1.2552000  3
    847    850    851    854     1  180.0000771  2.0083200  2
    847    850    851    854     1  0.0000000  1.2552000  3
    847    850    860    863     1  180.0000771  2.0083200  2
    847    850    860    863     1  0.0000000  1.2552000  3
    847    844    841    869     1  0.0000000  0.6508444  3
    850    851    854    857     1  0.0000000  0.6508444  3
    850    860    863    866     1  0.0000000  0.6508444  3
    851    854    857    858     1  180.0000771  0.0000000  2
    851    854    857    859     1  180.0000771  0.0000000  2
    851    850    860    863     1  180.0000771  2.0083200  2
    851    850    860    863     1  0.0000000  1.2552000  3
    854    851    850    860     1  180.0000771  2.0083200  2
    854    851    850    860     1  0.0000000  1.2552000  3
    860    863    866    867     1  180.0000771  0.0000000  2
    860    863    866    868     1  180.0000771  0.0000000  2
    870    873    876    879     1  0.0000000  0.6508444  3
    873    876    879    880     1  180.0000771  2.0083200  2
    873    876    879    880     1  0.0000000  1.2552000  3
    873    876    879    889     1  180.0000771  2.0083200  2
    873    876    879    889     1  0.0000000  1.2552000  3
    876    873    870    898     1  0.0000000  0.6508444  3
    876    879    880    883     1  180.0000771  2.0083200  2
    876    879    880    883     1  0.0000000  1.2552000  3
    876    879    889    892     1  180.0000771  2.0083200  2
    876    879    889    892     1  0.0000000  1.2552000  3
    879    880    883    886     1  0.0000000  0.6508444  3
    879    889    892    895     1  0.0000000  0.6508444  3
    880    879    889    892     1  180.0000771  2.0083200  2
    880    879    889    892     1  0.0000000  1.2552000  3
    880    883    886    887     1  180.0000771  0.0000000  2
    880    883    886    888     1  180.0000771  0.0000000  2
    883    880    879    889     1  180.0000771  2.0083200  2
    883    880    879    889     1  0.0000000  1.2552000  3
    889    892    895    896     1  180.0000771  0.0000000  2
    889    892    895    897     1  180.0000771  0.0000000  2
    899    902    905    908     1  0.0000000  0.6508444  3
    902    905    908    909     1  180.0000771  2.0083200  2
    902    905    908    909     1  0.0000000  1.2552000  3
    902    905    908    918     1  180.0000771  2.0083200  2
    902    905    908    918     1  0.0000000  1.2552000  3
    905    908    909    912     1  180.0000771  2.0083200  2
    905    908    909    912     1  0.0000000  1.2552000  3
    905    908    918    921     1  180.0000771  2.0083200  2
    905    908    918    921     1  0.0000000  1.2552000  3
    905    902    899    927     1  0.0000000  0.6508444  3
    908    909    912    915     1  0.0000000  0.6508444  3
    908    918    921    924     1  0.0000000  0.6508444  3
    909    912    915    916     1  180.0000771  0.0000000  2
    909    912    915    917     1  180.0000771  0.0000000  2
    909    908    918    921     1  180.0000771  2.0083200  2
    909    908    918    921     1  0.0000000  1.2552000  3
    912    909    908    918     1  180.0000771  2.0083200  2
    912    909    908    918     1  0.0000000  1.2552000  3
    918    921    924    925     1  180.0000771  0.0000000  2
    918    921    924    926     1  180.0000771  0.0000000  2
    928    931    934    937     1  0.0000000  0.6508444  3
    931    934    937    938     1  180.0000771  2.0083200  2
    931    934    937    938     1  0.0000000  1.2552000  3
    931    934    937    947     1  180.0000771  2.0083200  2
    931    934    937    947     1  0.0000000  1.2552000  3
    934    931    928    956     1  0.0000000  0.6508444  3
    934    937    938    941     1  180.0000771  2.0083200  2
    934    937    938    941     1  0.0000000  1.2552000  3
    934    937    947    950     1  180.0000771  2.0083200  2
    934    937    947    950     1  0.0000000  1.2552000  3
    937    938    941    944     1  0.0000000  0.6508444  3
    937    947    950    953     1  0.0000000  0.6508444  3
    938    937    947    950     1  180.0000771  2.0083200  2
    938    937    947    950     1  0.0000000  1.2552000  3
    938    941    944    945     1  180.0000771  0.0000000  2
    938    941    944    946     1  180.0000771  0.0000000  2
    941    938    937    947     1  180.0000771  2.0083200  2
    941    938    937    947     1  0.0000000  1.2552000  3
    947    950    953    954     1  180.0000771  0.0000000  2
    947    950    953    955     1  180.0000771  0.0000000  2
    957    960    963    966     1  0.0000000  0.6508444  3
    960    963    966    967     1  180.0000771  2.0083200  2
    960    963    966    967     1  0.0000000  1.2552000  3
    960    963    966    976     1  180.0000771  2.0083200  2
    960    963    966    976     1  0.0000000  1.2552000  3
    963    966    967    970     1  180.0000771  2.0083200  2
    963    966    967    970     1  0.0000000  1.2552000  3
    963    966    976    979     1  180.0000771  2.0083200  2
    963    966    976    979     1  0.0000000  1.2552000  3
    963    960    957    985     1  0.0000000  0.6508444  3
    966    967    970    973     1  0.0000000  0.6508444  3
    966    976    979    982     1  0.0000000  0.6508444  3
    967    970    973    974     1  180.0000771  0.0000000  2
    967    970    973    975     1  180.0000771  0.0000000  2
    967    966    976    979     1  180.0000771  2.0083200  2
    967    966    976    979     1  0.0000000  1.2552000  3
    970    967    966    976     1  180.0000771  2.0083200  2
    970    967    966    976     1  0.0000000  1.2552000  3
    976    979    982    983     1  180.0000771  0.0000000  2
    976    979    982    984     1  180.0000771  0.0000000  2
    986    989    992    995     1  0.0000000  0.6508444  3
    989    992    995    996     1  180.0000771  2.0083200  2
    989    992    995    996     1  0.0000000  1.2552000  3
    989    992    995   1005     1  180.0000771  2.0083200  2
    989    992    995   1005     1  0.0000000  1.2552000  3
    992    989    986   1014     1  0.0000000  0.6508444  3
    992    995    996    999     1  180.0000771  2.0083200  2
    992    995    996    999     1  0.0000000  1.2552000  3
    992    995   1005   1008     1  180.0000771  2.0083200  2
    992    995   1005   1008     1  0.0000000  1.2552000  3
    995    996    999   1002     1  0.0000000  0.6508444  3
    995   1005   1008   1011     1  0.0000000  0.6508444  3
    996    995   1005   1008     1  180.0000771  2.0083200  2
    996    995   1005   1008     1  0.0000000  1.2552000  3
    996    999   1002   1003     1  180.0000771  0.0000000  2
    996    999   1002   1004     1  180.0000771  0.0000000  2
    999    996    995   1005     1  180.0000771  2.0083200  2
    999    996    995   1005     1  0.0000000  1.2552000  3
   1005   1008   1011   1012     1  180.0000771  0.0000000  2
   1005   1008   1011   1013     1  180.0000771  0.0000000  2
   1015   1018   1021   1024     1  0.0000000  0.6508444  3
   1018   1021   1024   1025     1  180.0000771  2.0083200  2
   1018   1021   1024   1025     1  0.0000000  1.2552000  3
   1018   1021   1024   1034     1  180.0000771  2.0083200  2
   1018   1021   1024   1034     1  0.0000000  1.2552000  3
   1021   1024   1025   1028     1  180.0000771  2.0083200  2
   1021   1024   1025   1028     1  0.0000000  1.2552000  3
   1021   1024   1034   1037     1  180.0000771  2.0083200  2
   1021   1024   1034   1037     1  0.0000000  1.2552000  3
   1021   1018   1015   1043     1  0.0000000  0.6508444  3
   1024   1025   1028   1031     1  0.0000000  0.6508444  3
   1024   1034   1037   1040     1  0.0000000  0.6508444  3
   1025   1028   1031   1032     1  180.0000771  0.0000000  2
   1025   1028   1031   1033     1  180.0000771  0.0000000  2
   1025   1024   1034   1037     1  180.0000771  2.0083200  2
   1025   1024   1034   1037     1  0.0000000  1.2552000  3
   1028   1025   1024   1034     1  180.0000771  2.0083200  2
   1028   1025   1024   1034     1  0.0000000  1.2552000  3
   1034   1037   1040   1041     1  180.0000771  0.0000000  2
   1034   1037   1040   1042     1  180.0000771  0.0000000  2
   1044   1047   1050   1053     1  0.0000000  0.6508444  3
   1047   1050   1053   1054     1  180.0000771  2.0083200  2
   1047   1050   1053   1054     1  0.0000000  1.2552000  3
   1047   1050   1053   1063     1  180.0000771  2.0083200  2
   1047   1050   1053   1063     1  0.0000000  1.2552000  3
   1050   1047   1044   1072     1  0.0000000  0.6508444  3
   1050   1053   1054   1057     1  180.0000771  2.0083200  2
   1050   1053   1054   1057     1  0.0000000  1.2552000  3
   1050   1053   1063   1066     1  180.0000771  2.0083200  2
   1050   1053   1063   1066     1  0.0000000  1.2552000  3
   1053   1054   1057   1060     1  0.0000000  0.6508444  3
   1053   1063   1066   1069     1  0.0000000  0.6508444  3
   1054   1053   1063   1066     1  180.0000771  2.0083200  2
   1054   1053   1063   1066     1  0.0000000  1.2552000  3
   1054   1057   1060   1061     1  180.0000771  0.0000000  2
   1054   1057   1060   1062     1  180.0000771  0.0000000  2
   1057   1054   1053   1063     1  180.0000771  2.0083200  2
   1057   1054   1053   1063     1  0.0000000  1.2552000  3
   1063   1066   1069   1070     1  180.0000771  0.0000000  2
   1063   1066   1069   1071     1  180.0000771  0.0000000  2
   1073   1076   1079   1082     1  0.0000000  0.6508444  3
   1076   1079   1082   1083     1  180.0000771  2.0083200  2
   1076   1079   1082   1083     1  0.0000000  1.2552000  3
   1076   1079   1082   1092     1  180.0000771  2.0083200  2
   1076   1079   1082   1092     1  0.0000000  1.2552000  3
   1079   1082   1083   1086     1  180.0000771  2.0083200  2
   1079   1082   1083   1086     1  0.0000000  1.2552000  3
   1079   1082   1092   1095     1  180.0000771  2.0083200  2
   1079   1082   1092   1095     1  0.0000000  1.2552000  3
   1079   1076   1073   1101     1  0.0000000  0.6508444  3
   1082   1083   1086   1089     1  0.0000000  0.6508444  3
   1082   1092   1095   1098     1  0.0000000  0.6508444  3
   1083   1086   1089   1090     1  180.0000771  0.0000000  2
   1083   1086   1089   1091     1  180.0000771  0.0000000  2
   1083   1082   1092   1095     1  180.0000771  2.0083200  2
   1083   1082   1092   1095     1  0.0000000  1.2552000  3
   1086   1083   1082   1092     1  180.0000771  2.0083200  2
   1086   1083   1082   1092     1  0.0000000  1.2552000  3
   1092   1095   1098   1099     1  180.0000771  0.0000000  2
   1092   1095   1098   1100     1  180.0000771  0.0000000  2
   1102   1105   1108   1111     1  0.0000000  0.6508444  3
   1105   1108   1111   1112     1  180.0000771  2.0083200  2
   1105   1108   1111   1112     1  0.0000000  1.2552000  3
   1105   1108   1111   1121     1  180.0000771  2.0083200  2
   1105   1108   1111   1121     1  0.0000000  1.2552000  3
   1108   1105   1102   1130     1  0.0000000  0.6508444  3
   1108   1111   1112   1115     1  180.0000771  2.0083200  2
   1108   1111   1112   1115     1  0.0000000  1.2552000  3
   1108   1111   1121   1124     1  180.0000771  2.0083200  2
   1108   1111   1121   1124     1  0.0000000  1.2552000  3
   1111   1112   1115   1118     1  0.0000000  0.6508444  3
   1111   1121   1124   1127     1  0.0000000  0.6508444  3
   1112   1111   1121   1124     1  180.0000771  2.0083200  2
   1112   1111   1121   1124     1  0.0000000  1.2552000  3
   1112   1115   1118   1119     1  180.0000771  0.0000000  2
   1112   1115   1118   1120     1  180.0000771  0.0000000  2
   1115   1112   1111   1121     1  180.0000771  2.0083200  2
   1115   1112   1111   1121     1  0.0000000  1.2552000  3
   1121   1124   1127   1128     1  180.0000771  0.0000000  2
   1121   1124   1127   1129     1  180.0000771  0.0000000  2
   1131   1134   1137   1140     1  0.0000000  0.6508444  3
   1134   1137   1140   1141     1  180.0000771  2.0083200  2
   1134   1137   1140   1141     1  0.0000000  1.2552000  3
   1134   1137   1140   1150     1  180.0000771  2.0083200  2
   1134   1137   1140   1150     1  0.0000000  1.2552000  3
   1137   1140   1141   1144     1  180.0000771  2.0083200  2
   1137   1140   1141   1144     1  0.0000000  1.2552000  3
   1137   1140   1150   1153     1  180.0000771  2.0083200  2
   1137   1140   1150   1153     1  0.0000000  1.2552000  3
   1137   1134   1131   1159     1  0.0000000  0.6508444  3
   1140   1141   1144   1147     1  0.0000000  0.6508444  3
   1140   1150   1153   1156     1  0.0000000  0.6508444  3
   1141   1144   1147   1148     1  180.0000771  0.0000000  2
   1141   1144   1147   1149     1  180.0000771  0.0000000  2
   1141   1140   1150   1153     1  180.0000771  2.0083200  2
   1141   1140   1150   1153     1  0.0000000  1.2552000  3
   1144   1141   1140   1150     1  180.0000771  2.0083200  2
   1144   1141   1140   1150     1  0.0000000  1.2552000  3
   1150   1153   1156   1157     1  180.0000771  0.0000000  2
   1150   1153   1156   1158     1  180.0000771  0.0000000  2
   1160   1163   1166   1169     1  0.0000000  0.6508444  3
   1163   1166   1169   1170     1  180.0000771  2.0083200  2
   1163   1166   1169   1170     1  0.0000000  1.2552000  3
   1163   1166   1169   1179     1  180.0000771  2.0083200  2
   1163   1166   1169   1179     1  0.0000000  1.2552000  3
   1166   1163   1160   1188     1  0.0000000  0.6508444  3
   1166   1169   1170   1173     1  180.0000771  2.0083200  2
   1166   1169   1170   1173     1  0.0000000  1.2552000  3
   1166   1169   1179   1182     1  180.0000771  2.0083200  2
   1166   1169   1179   1182     1  0.0000000  1.2552000  3
   1169   1170   1173   1176     1  0.0000000  0.6508444  3
   1169   1179   1182   1185     1  0.0000000  0.6508444  3
   1170   1169   1179   1182     1  180.0000771  2.0083200  2
   1170   1169   1179   1182     1  0.0000000  1.2552000  3
   1170   1173   1176   1177     1  180.0000771  0.0000000  2
   1170   1173   1176   1178     1  180.0000771  0.0000000  2
   1173   1170   1169   1179     1  180.0000771  2.0083200  2
   1173   1170   1169   1179     1  0.0000000  1.2552000  3
   1179   1182   1185   1186     1  180.0000771  0.0000000  2
   1179   1182   1185   1187     1  180.0000771  0.0000000  2
   1189   1192   1195   1198     1  0.0000000  0.6508444  3
   1192   1195   1198   1199     1  180.0000771  2.0083200  2
   1192   1195   1198   1199     1  0.0000000  1.2552000  3
   1192   1195   1198   1208     1  180.0000771  2.0083200  2
   1192   1195   1198   1208     1  0.0000000  1.2552000  3
   1195   1198   1199   1202     1  180.0000771  2.0083200  2
   1195   1198   1199   1202     1  0.0000000  1.2552000  3
   1195   1198   1208   1211     1  180.0000771  2.0083200  2
   1195   1198   1208   1211     1  0.0000000  1.2552000  3
   1195   1192   1189   1217     1  0.0000000  0.6508444  3
   1198   1199   1202   1205     1  0.0000000  0.6508444  3
   1198   1208   1211   1214     1  0.0000000  0.6508444  3
   1199   1202   1205   1206     1  180.0000771  0.0000000  2
   1199   1202   1205   1207     1  180.0000771  0.0000000  2
   1199   1198   1208   1211     1  180.0000771  2.0083200  2
   1199   1198   1208   1211     1  0.0000000  1.2552000  3
   1202   1199   1198   1208     1  180.0000771  2.0083200  2
   1202   1199   1198   1208     1  0.0000000  1.2552000  3
   1208   1211   1214   1215     1  180.0000771  0.0000000  2
   1208   1211   1214   1216     1  180.0000771  0.0000000  2
   1218   1221   1224   1227     1  0.0000000  0.6508444  3
   1221   1224   1227   1228     1  180.0000771  2.0083200  2
   1221   1224   1227   1228     1  0.0000000  1.2552000  3
   1221   1224   1227   1237     1  180.0000771  2.0083200  2
   1221   1224   1227   1237     1  0.0000000  1.2552000  3
   1224   1221   1218   1246     1  0.0000000  0.6508444  3
   1224   1227   1228   1231     1  180.0000771  2.0083200  2
   1224   1227   1228   1231     1  0.0000000  1.2552000  3
   1224   1227   1237   1240     1  180.0000771  2.0083200  2
   1224   1227   1237   1240     1  0.0000000  1.2552000  3
   1227   1228   1231   1234     1  0.0000000  0.6508444  3
   1227   1237   1240   1243     1  0.0000000  0.6508444  3
   1228   1227   1237   1240     1  180.0000771  2.0083200  2
   1228   1227   1237   1240     1  0.0000000  1.2552000  3
   1228   1231   1234   1235     1  180.0000771  0.0000000  2
   1228   1231   1234   1236     1  180.0000771  0.0000000  2
   1231   1228   1227   1237     1  180.0000771  2.0083200  2
   1231   1228   1227   1237     1  0.0000000  1.2552000  3
   1237   1240   1243   1244     1  180.0000771  0.0000000  2
   1237   1240   1243   1245     1  180.0000771  0.0000000  2
   1247   1250   1253   1256     1  0.0000000  0.6508444  3
   1250   1253   1256   1257     1  180.0000771  2.0083200  2
   1250   1253   1256   1257     1  0.0000000  1.2552000  3
   1250   1253   1256   1266     1  180.0000771  2.0083200  2
   1250   1253   1256   1266     1  0.0000000  1.2552000  3
   1253   1256   1257   1260     1  180.0000771  2.0083200  2
   1253   1256   1257   1260     1  0.0000000  1.2552000  3
   1253   1256   1266   1269     1  180.0000771  2.0083200  2
   1253   1256   1266   1269     1  0.0000000  1.2552000  3
   1253   1250   1247   1275     1  0.0000000  0.6508444  3
   1256   1257   1260   1263     1  0.0000000  0.6508444  3
   1256   1266   1269   1272     1  0.0000000  0.6508444  3
   1257   1260   1263   1264     1  180.0000771  0.0000000  2
   1257   1260   1263   1265     1  180.0000771  0.0000000  2
   1257   1256   1266   1269     1  180.0000771  2.0083200  2
   1257   1256   1266   1269     1  0.0000000  1.2552000  3
   1260   1257   1256   1266     1  180.0000771  2.0083200  2
   1260   1257   1256   1266     1  0.0000000  1.2552000  3
   1266   1269   1272   1273     1  180.0000771  0.0000000  2
   1266   1269   1272   1274     1  180.0000771  0.0000000  2
   1276   1279   1282   1285     1  0.0000000  0.6508444  3
   1279   1282   1285   1286     1  180.0000771  2.0083200  2
   1279   1282   1285   1286     1  0.0000000  1.2552000  3
   1279   1282   1285   1295     1  180.0000771  2.0083200  2
   1279   1282   1285   1295     1  0.0000000  1.2552000  3
   1282   1279   1276   1304     1  0.0000000  0.6508444  3
   1282   1285   1286   1289     1  180.0000771  2.0083200  2
   1282   1285   1286   1289     1  0.0000000  1.2552000  3
   1282   1285   1295   1298     1  180.0000771  2.0083200  2
   1282   1285   1295   1298     1  0.0000000  1.2552000  3
   1285   1286   1289   1292     1  0.0000000  0.6508444  3
   1285   1295   1298   1301     1  0.0000000  0.6508444  3
   1286   1285   1295   1298     1  180.0000771  2.0083200  2
   1286   1285   1295   1298     1  0.0000000  1.2552000  3
   1286   1289   1292   1293     1  180.0000771  0.0000000  2
   1286   1289   1292   1294     1  180.0000771  0.0000000  2
   1289   1286   1285   1295     1  180.0000771  2.0083200  2
   1289   1286   1285   1295     1  0.0000000  1.2552000  3
   1295   1298   1301   1302     1  180.0000771  0.0000000  2
   1295   1298   1301   1303     1  180.0000771  0.0000000  2
   1305   1308   1311   1314     1  0.0000000  0.6508444  3
   1308   1311   1314   1315     1  180.0000771  2.0083200  2
   1308   1311   1314   1315     1  0.0000000  1.2552000  3
   1308   1311   1314   1324     1  180.0000771  2.0083200  2
   1308   1311   1314   1324     1  0.0000000  1.2552000  3
   1311   1314   1315   1318     1  180.0000771  2.0083200  2
   1311   1314   1315   1318     1  0.0000000  1.2552000  3
   1311   1314   1324   1327     1  180.0000771  2.0083200  2
   1311   1314   1324   1327     1  0.0000000  1.2552000  3
   1311   1308   1305   1333     1  0.0000000  0.6508444  3
   1314   1315   1318   1321     1  0.0000000  0.6508444  3
   1314   1324   1327   1330     1  0.0000000  0.6508444  3
   1315   1318   1321   1322     1  180.0000771  0.0000000  2
   1315   1318   1321   1323     1  180.0000771  0.0000000  2
   1315   1314   1324   1327     1  180.0000771  2.0083200  2
   1315   1314   1324   1327     1  0.0000000  1.2552000  3
   1318   1315   1314   1324     1  180.0000771  2.0083200  2
   1318   1315   1314   1324     1  0.0000000  1.2552000  3
   1324   1327   1330   1331     1  180.0000771  0.0000000  2
   1324   1327   1330   1332     1  180.0000771  0.0000000  2
    651    655    654    656     4  180.0000771  4.6024000  2
    660    664    663    665     4  180.0000771  4.6024000  2
    680    684    683    685     4  180.0000771  4.6024000  2
    689    693    692    694     4  180.0000771  4.6024000  2
    709    713    712    714     4  180.0000771  4.6024000  2
    718    722    721    723     4  180.0000771  4.6024000  2
    738    742    741    743     4  180.0000771  4.6024000  2
    747    751    750    752     4  180.0000771  4.6024000  2
    767    771    770    772     4  180.0000771  4.6024000  2
    776    780    779    781     4  180.0000771  4.6024000  2
    796    800    799    801     4  180.0000771  4.6024000  2
    805    809    808    810     4  180.0000771  4.6024000  2
    825    829    828    830     4  180.0000771  4.6024000  2
    834    838    837    839     4  180.0000771  4.6024000  2
    854    858    857    859     4  180.0000771  4.6024000  2
    863    867    866    868     4  180.0000771  4.6024000  2
    883    887    886    888     4  180.0000771  4.6024000  2
    892    896    895    897     4  180.0000771  4.6024000  2
    912    916    915    917     4  180.0000771  4.6024000  2
    921    925    924    926     4  180.0000771  4.6024000  2
    941    945    944    946     4  180.0000771  4.6024000  2
    950    954    953    955     4  180.0000771  4.6024000  2
    970    974    973    975     4  180.0000771  4.6024000  2
    979    983    982    984     4  180.0000771  4.6024000  2
    999   1003   1002   1004     4  180.0000771  4.6024000  2
   1008   1012   1011   1013     4  180.0000771  4.6024000  2
   1028   1032   1031   1033     4  180.0000771  4.6024000  2
   1037   1041   1040   1042     4  180.0000771  4.6024000  2
   1057   1061   1060   1062     4  180.0000771  4.6024000  2
   1066   1070   1069   1071     4  180.0000771  4.6024000  2
   1086   1090   1089   1091     4  180.0000771  4.6024000  2
   1095   1099   1098   1100     4  180.0000771  4.6024000  2
   1115   1119   1118   1120     4  180.0000771  4.6024000  2
   1124   1128   1127   1129     4  180.0000771  4.6024000  2
   1144   1148   1147   1149     4  180.0000771  4.6024000  2
   1153   1157   1156   1158     4  180.0000771  4.6024000  2
   1173   1177   1176   1178     4  180.0000771  4.6024000  2
   1182   1186   1185   1187     4  180.0000771  4.6024000  2
   1202   1206   1205   1207     4  180.0000771  4.6024000  2
   1211   1215   1214   1216     4  180.0000771  4.6024000  2
   1231   1235   1234   1236     4  180.0000771  4.6024000  2
   1240   1244   1243   1245     4  180.0000771  4.6024000  2
   1260   1264   1263   1265     4  180.0000771  4.6024000  2
   1269   1273   1272   1274     4  180.0000771  4.6024000  2
   1289   1293   1292   1294     4  180.0000771  4.6024000  2
   1298   1302   1301   1303     4  180.0000771  4.6024000  2
   1318   1322   1321   1323     4  180.0000771  4.6024000  2
   1327   1331   1330   1332     4  180.0000771  4.6024000  2
      1      2     14     15     1  0.0000000  0.6508444  3
      1      2     14     16     1  0.0000000  0.6508444  3
      1      5     17     18     1  0.0000000  0.6508444  3
      1      5     17     19     1  0.0000000  0.6508444  3
      1      8     11     12     1  0.0000000  0.6508444  3
      1      8     11     13     1  0.0000000  0.6508444  3
      2      1      5      6     1  0.0000000  1.2552000  3
      2      1      5      7     1  0.0000000  1.2552000  3
      2      1      8      9     1  0.0000000  1.2552000  3
      2      1      8     10     1  0.0000000  1.2552000  3
      2     14     26     27     1  0.0000000  0.6508444  3
      2     14     26     28     1  0.0000000  0.6508444  3
      5      1      2      3     1  0.0000000  1.2552000  3
      8      1      2      3     1  0.0000000  1.2552000  3
      3      2     14     26     1  0.0000000  0.6508444  3
      3      2     14     15     1  0.0000000  0.6508444  3
      3      2     14     16     1  0.0000000  0.6508444  3
      5      1      2      4     1  0.0000000  1.2552000  3
      8      1      2      4     1  0.0000000  1.2552000  3
      4      2     14     26     1  0.0000000  0.6508444  3
      4      2     14     15     1  0.0000000  0.6508444  3
      4      2     14     16     1  0.0000000  0.6508444  3
      5      1      8      9     1  0.0000000  1.2552000  3
      5      1      8     10     1  0.0000000  1.2552000  3
      5     17     20     21     1  0.0000000  0.6508444  3
      5     17     20     22     1  0.0000000  0.6508444  3
      8      1      5      6     1  0.0000000  1.2552000  3
      6      5     17     20     1  0.0000000  0.6508444  3
      6      5     17     18     1  0.0000000  0.6508444  3
      6      5     17     19     1  0.0000000  0.6508444  3
      8      1      5      7     1  0.0000000  1.2552000  3
      7      5     17     20     1  0.0000000  0.6508444  3
      7      5     17     18     1  0.0000000  0.6508444  3
      7      5     17     19     1  0.0000000  0.6508444  3
      8     11     23     24     1  0.0000000  0.6508444  3
      8     11     23     25     1  0.0000000  0.6508444  3
      9      8     11     23     1  0.0000000  0.6508444  3
      9      8     11     12     1  0.0000000  0.6508444  3
      9      8     11     13     1  0.0000000  0.6508444  3
     10      8     11     23     1  0.0000000  0.6508444  3
     10      8     11     12     1  0.0000000  0.6508444  3
     10      8     11     13     1  0.0000000  0.6508444  3
     12     11     23     86     1  0.0000000  1.0460000  1
     12     11     23     86     1  0.0000000  0.0000000  3
     12     11     23     24     1  0.0000000  0.6508444  3
     12     11     23     25     1  0.0000000  0.6508444  3
     13     11     23     86     1  0.0000000  1.0460000  1
     13     11     23     86     1  0.0000000  0.0000000  3
     13     11     23     24     1  0.0000000  0.6508444  3
     13     11     23     25     1  0.0000000  0.6508444  3
     15     14     26    115     1  0.0000000  1.0460000  1
     15     14     26    115     1  0.0000000  0.0000000  3
     15     14     26     27     1  0.0000000  0.6508444  3
     15     14     26     28     1  0.0000000  0.6508444  3
     16     14     26    115     1  0.0000000  1.0460000  1
     16     14     26    115     1  0.0000000  0.0000000  3
     16     14     26     27     1  0.0000000  0.6508444  3
     16     14     26     28     1  0.0000000  0.6508444  3
     18     17     20     57     1  0.0000000  1.0460000  1
     18     17     20     57     1  0.0000000  0.0000000  3
     18     17     20     21     1  0.0000000  0.6508444  3
     18     17     20     22     1  0.0000000  0.6508444  3
     19     17     20     57     1  0.0000000  1.0460000  1
     19     17     20     57     1  0.0000000  0.0000000  3
     19     17     20     21     1  0.0000000  0.6508444  3
     19     17     20     22     1  0.0000000  0.6508444  3
     20     57     48     49     1  0.0000000  1.6038667  3
     20     57     48     50     1  0.0000000  1.6038667  3
     21     20     57     48     1  0.0000000  1.6038667  3
     22     20     57     48     1  0.0000000  1.6038667  3
     23     86     77     78     1  0.0000000  1.6038667  3
     23     86     77     79     1  0.0000000  1.6038667  3
     24     23     86     77     1  0.0000000  1.6038667  3
     25     23     86     77     1  0.0000000  1.6038667  3
     26    115    106    107     1  0.0000000  1.6038667  3
     26    115    106    108     1  0.0000000  1.6038667  3
     27     26    115    106     1  0.0000000  1.6038667  3
     28     26    115    106     1  0.0000000  1.6038667  3
     29     30     42     43     1  0.0000000  0.6508444  3
     29     30     42     44     1  0.0000000  0.6508444  3
     29     33     45     46     1  0.0000000  0.6508444  3
     29     33     45     47     1  0.0000000  0.6508444  3
     29     36     39     40     1  0.0000000  0.6508444  3
     29     36     39     41     1  0.0000000  0.6508444  3
     30     29     33     34     1  0.0000000  1.2552000  3
     30     29     33     35     1  0.0000000  1.2552000  3
     30     29     36     37     1  0.0000000  1.2552000  3
     30     29     36     38     1  0.0000000  1.2552000  3
     30     42     54     55     1  0.0000000  0.6508444  3
     30     42     54     56     1  0.0000000  0.6508444  3
     31     30     29     33     1  0.0000000  1.2552000  3
     31     30     29     36     1  0.0000000  1.2552000  3
     31     30     42     54     1  0.0000000  0.6508444  3
     31     30     42     43     1  0.0000000  0.6508444  3
     31     30     42     44     1  0.0000000  0.6508444  3
     32     30     29     33     1  0.0000000  1.2552000  3
     32     30     29     36     1  0.0000000  1.2552000  3
     32     30     42     54     1  0.0000000  0.6508444  3
     32     30     42     43     1  0.0000000  0.6508444  3
     32     30     42     44     1  0.0000000  0.6508444  3
     33     29     36     37     1  0.0000000  1.2552000  3
     33     29     36     38     1  0.0000000  1.2552000  3
     33     45     51     52     1  0.0000000  0.6508444  3
     33     45     51     53     1  0.0000000  0.6508444  3
     34     33     29     36     1  0.0000000  1.2552000  3
     34     33     45     51     1  0.0000000  0.6508444  3
     34     33     45     46     1  0.0000000  0.6508444  3
     34     33     45     47     1  0.0000000  0.6508444  3
     35     33     29     36     1  0.0000000  1.2552000  3
     35     33     45     51     1  0.0000000  0.6508444  3
     35     33     45     46     1  0.0000000  0.6508444  3
     35     33     45     47     1  0.0000000  0.6508444  3
     36     39     48     49     1  0.0000000  0.6508444  3
     36     39     48     50     1  0.0000000  0.6508444  3
     37     36     39     48     1  0.0000000  0.6508444  3
     37     36     39     40     1  0.0000000  0.6508444  3
     37     36     39     41     1  0.0000000  0.6508444  3
     38     36     39     48     1  0.0000000  0.6508444  3
     38     36     39     40     1  0.0000000  0.6508444  3
     38     36     39     41     1  0.0000000  0.6508444  3
     40     39     48     57     1  0.0000000  1.0460000  1
     40     39     48     57     1  0.0000000  0.0000000  3
     40     39     48     49     1  0.0000000  0.6508444  3
     40     39     48     50     1  0.0000000  0.6508444  3
     41     39     48     57     1  0.0000000  1.0460000  1
     41     39     48     57     1  0.0000000  0.0000000  3
     41     39     48     49     1  0.0000000  0.6508444  3
     41     39     48     50     1  0.0000000  0.6508444  3
     43     42     54    173     1  0.0000000  1.0460000  1
     43     42     54    173     1  0.0000000  0.0000000  3
     43     42     54     55     1  0.0000000  0.6508444  3
     43     42     54     56     1  0.0000000  0.6508444  3
     44     42     54    173     1  0.0000000  1.0460000  1
     44     42     54    173     1  0.0000000  0.0000000  3
     44     42     54     55     1  0.0000000  0.6508444  3
     44     42     54     56     1  0.0000000  0.6508444  3
     46     45     51    144     1  0.0000000  1.0460000  1
     46     45     51    144     1  0.0000000  0.0000000  3
     46     45     51     52     1  0.0000000  0.6508444  3
     46     45     51     53     1  0.0000000  0.6508444  3
     47     45     51    144     1  0.0000000  1.0460000  1
     47     45     51    144     1  0.0000000  0.0000000  3
     47     45     51     52     1  0.0000000  0.6508444  3
     47     45     51     53     1  0.0000000  0.6508444  3
     51    144    135    136     1  0.0000000  1.6038667  3
     51    144    135    137     1  0.0000000  1.6038667  3
     52     51    144    135     1  0.0000000  1.6038667  3
     53     51    144    135     1  0.0000000  1.6038667  3
     54    173    164    165     1  0.0000000  1.6038667  3
     54    173    164    166     1  0.0000000  1.6038667  3
     55     54    173    164     1  0.0000000  1.6038667  3
     56     54    173    164     1  0.0000000  1.6038667  3
     58     59     71     72     1  0.0000000  0.6508444  3
     58     59     71     73     1  0.0000000  0.6508444  3
     58     62     74     75     1  0.0000000  0.6508444  3
     58     62     74     76     1  0.0000000  0.6508444  3
     58     65     68     69     1  0.0000000  0.6508444  3
     58     65     68     70     1  0.0000000  0.6508444  3
     59     58     62     63     1  0.0000000  1.2552000  3
     59     58     62     64     1  0.0000000  1.2552000  3
     59     58     65     66     1  0.0000000  1.2552000  3
     59     58     65     67     1  0.0000000  1.2552000  3
     59     71     83     84     1  0.0000000  0.6508444  3
     59     71     83     85     1  0.0000000  0.6508444  3
     60     59     58     62     1  0.0000000  1.2552000  3
     60     59     58     65     1  0.0000000  1.2552000  3
     60     59     71     83     1  0.0000000  0.6508444  3
     60     59     71     72     1  0.0000000  0.6508444  3
     60     59     71     73     1  0.0000000  0.6508444  3
     61     59     58     62     1  0.0000000  1.2552000  3
     61     59     58     65     1  0.0000000  1.2552000  3
     61     59     71     83     1  0.0000000  0.6508444  3
     61     59     71     72     1  0.0000000  0.6508444  3
     61     59     71     73     1  0.0000000  0.6508444  3
     62     58     65     66     1  0.0000000  1.2552000  3
     62     58     65     67     1  0.0000000  1.2552000  3
     62     74     80     81     1  0.0000000  0.6508444  3
     62     74     80     82     1  0.0000000  0.6508444  3
     63     62     58     65     1  0.0000000  1.2552000  3
     63     62     74     80     1  0.0000000  0.6508444  3
     63     62     74     75     1  0.0000000  0.6508444  3
     63     62     74     76     1  0.0000000  0.6508444  3
     64     62     58     65     1  0.0000000  1.2552000  3
     64     62     74     80     1  0.0000000  0.6508444  3
     64     62     74     75     1  0.0000000  0.6508444  3
     64     62     74     76     1  0.0000000  0.6508444  3
     65     68     77     78     1  0.0000000  0.6508444  3
     65     68     77     79     1  0.0000000  0.6508444  3
     66     65     68     77     1  0.0000000  0.6508444  3
     66     65     68     69     1  0.0000000  0.6508444  3
     66     65     68     70     1  0.0000000  0.6508444  3
     67     65     68     77     1  0.0000000  0.6508444  3
     67     65     68     69     1  0.0000000  0.6508444  3
     67     65     68     70     1  0.0000000  0.6508444  3
     69     68     77     86     1  0.0000000  1.0460000  1
     69     68     77     86     1  0.0000000  0.0000000  3
     69     68     77     78     1  0.0000000  0.6508444  3
     69     68     77     79     1  0.0000000  0.6508444  3
     70     68     77     86     1  0.0000000  1.0460000  1
     70     68     77     86     1  0.0000000  0.0000000  3
     70     68     77     78     1  0.0000000  0.6508444  3
     70     68     77     79     1  0.0000000  0.6508444  3
     72     71     83    231     1  0.0000000  1.0460000  1
     72     71     83    231     1  0.0000000  0.0000000  3
     72     71     83     84     1  0.0000000  0.6508444  3
     72     71     83     85     1  0.0000000  0.6508444  3
     73     71     83    231     1  0.0000000  1.0460000  1
     73     71     83    231     1  0.0000000  0.0000000  3
     73     71     83     84     1  0.0000000  0.6508444  3
     73     71     83     85     1  0.0000000  0.6508444  3
     75     74     80    202     1  0.0000000  1.0460000  1
     75     74     80    202     1  0.0000000  0.0000000  3
     75     74     80     81     1  0.0000000  0.6508444  3
     75     74     80     82     1  0.0000000  0.6508444  3
     76     74     80    202     1  0.0000000  1.0460000  1
     76     74     80    202     1  0.0000000  0.0000000  3
     76     74     80     81     1  0.0000000  0.6508444  3
     76     74     80     82     1  0.0000000  0.6508444  3
     80    202    193    194     1  0.0000000  1.6038667  3
     80    202    193    195     1  0.0000000  1.6038667  3
     81     80    202    193     1  0.0000000  1.6038667  3
     82     80    202    193     1  0.0000000  1.6038667  3
     83    231    222    223     1  0.0000000  1.6038667  3
     83    231    222    224     1  0.0000000  1.6038667  3
     84     83    231    222     1  0.0000000  1.6038667  3
     85     83    231    222     1  0.0000000  1.6038667  3
     87     88    100    101     1  0.0000000  0.6508444  3
     87     88    100    102     1  0.0000000  0.6508444  3
     87     91    103    104     1  0.0000000  0.6508444  3
     87     91    103    105     1  0.0000000  0.6508444  3
     87     94     97     98     1  0.0000000  0.6508444  3
     87     94     97     99     1  0.0000000  0.6508444  3
     88     87     91     92     1  0.0000000  1.2552000  3
     88     87     91     93     1  0.0000000  1.2552000  3
     88     87     94     95     1  0.0000000  1.2552000  3
     88     87     94     96     1  0.0000000  1.2552000  3
     88    100    112    113     1  0.0000000  0.6508444  3
     88    100    112    114     1  0.0000000  0.6508444  3
     89     88     87     91     1  0.0000000  1.2552000  3
     89     88     87     94     1  0.0000000  1.2552000  3
     89     88    100    112     1  0.0000000  0.6508444  3
     89     88    100    101     1  0.0000000  0.6508444  3
     89     88    100    102     1  0.0000000  0.6508444  3
     90     88     87     91     1  0.0000000  1.2552000  3
     90     88     87     94     1  0.0000000  1.2552000  3
     90     88    100    112     1  0.0000000  0.6508444  3
     90     88    100    101     1  0.0000000  0.6508444  3
     90     88    100    102     1  0.0000000  0.6508444  3
     91     87     94     95     1  0.0000000  1.2552000  3
     91     87     94     96     1  0.0000000  1.2552000  3
     91    103    109    110     1  0.0000000  0.6508444  3
     91    103    109    111     1  0.0000000  0.6508444  3
     92     91     87     94     1  0.0000000  1.2552000  3
     92     91    103    109     1  0.0000000  0.6508444  3
     92     91    103    104     1  0.0000000  0.6508444  3
     92     91    103    105     1  0.0000000  0.6508444  3
     93     91     87     94     1  0.0000000  1.2552000  3
     93     91    103    109     1  0.0000000  0.6508444  3
     93     91    103    104     1  0.0000000  0.6508444  3
     93     91    103    105     1  0.0000000  0.6508444  3
     94     97    106    107     1  0.0000000  0.6508444  3
     94     97    106    108     1  0.0000000  0.6508444  3
     95     94     97    106     1  0.0000000  0.6508444  3
     95     94     97     98     1  0.0000000  0.6508444  3
     95     94     97     99     1  0.0000000  0.6508444  3
     96     94     97    106     1  0.0000000  0.6508444  3
     96     94     97     98     1  0.0000000  0.6508444  3
     96     94     97     99     1  0.0000000  0.6508444  3
     98     97    106    115     1  0.0000000  1.0460000  1
     98     97    106    115     1  0.0000000  0.0000000  3
     98     97    106    107     1  0.0000000  0.6508444  3
     98     97    106    108     1  0.0000000  0.6508444  3
     99     97    106    115     1  0.0000000  1.0460000  1
     99     97    106    115     1  0.0000000  0.0000000  3
     99     97    106    107     1  0.0000000  0.6508444  3
     99     97    106    108     1  0.0000000  0.6508444  3
    101    100    112    289     1  0.0000000  1.0460000  1
    101    100    112    289     1  0.0000000  0.0000000  3
    101    100    112    113     1  0.0000000  0.6508444  3
    101    100    112    114     1  0.0000000  0.6508444  3
    102    100    112    289     1  0.0000000  1.0460000  1
    102    100    112    289     1  0.0000000  0.0000000  3
    102    100    112    113     1  0.0000000  0.6508444  3
    102    100    112    114     1  0.0000000  0.6508444  3
    104    103    109    260     1  0.0000000  1.0460000  1
    104    103    109    260     1  0.0000000  0.0000000  3
    104    103    109    110     1  0.0000000  0.6508444  3
    104    103    109    111     1  0.0000000  0.6508444  3
    105    103    109    260     1  0.0000000  1.0460000  1
    105    103    109    260     1  0.0000000  0.0000000  3
    105    103    109    110     1  0.0000000  0.6508444  3
    105    103    109    111     1  0.0000000  0.6508444  3
    109    260    251    252     1  0.0000000  1.6038667  3
    109    260    251    253     1  0.0000000  1.6038667  3
    110    109    260    251     1  0.0000000  1.6038667  3
    111    109    260    251     1  0.0000000  1.6038667  3
    112    289    280    281     1  0.0000000  1.6038667  3
    112    289    280    282     1  0.0000000  1.6038667  3
    113    112    289    280     1  0.0000000  1.6038667  3
    114    112    289    280     1  0.0000000  1.6038667  3
    116    117    129    130     1  0.0000000  0.6508444  3
    116    117    129    131     1  0.0000000  0.6508444  3
    116    120    132    133     1  0.0000000  0.6508444  3
    116    120    132    134     1  0.0000000  0.6508444  3
    116    123    126    127     1  0.0000000  0.6508444  3
    116    123    126    128     1  0.0000000  0.6508444  3
    117    116    120    121     1  0.0000000  1.2552000  3
    117    116    120    122     1  0.0000000  1.2552000  3
    117    116    123    124     1  0.0000000  1.2552000  3
    117    116    123    125     1  0.0000000  1.2552000  3
    117    129    141    142     1  0.0000000  0.6508444  3
    117    129    141    143     1  0.0000000  0.6508444  3
    118    117    116    120     1  0.0000000  1.2552000  3
    118    117    116    123     1  0.0000000  1.2552000  3
    118    117    129    141     1  0.0000000  0.6508444  3
    118    117    129    130     1  0.0000000  0.6508444  3
    118    117    129    131     1  0.0000000  0.6508444  3
    119    117    116    120     1  0.0000000  1.2552000  3
    119    117    116    123     1  0.0000000  1.2552000  3
    119    117    129    141     1  0.0000000  0.6508444  3
    119    117    129    130     1  0.0000000  0.6508444  3
    119    117    129    131     1  0.0000000  0.6508444  3
    120    116    123    124     1  0.0000000  1.2552000  3
    120    116    123    125     1  0.0000000  1.2552000  3
    120    132    138    139     1  0.0000000  0.6508444  3
    120    132    138    140     1  0.0000000  0.6508444  3
    121    120    116    123     1  0.0000000  1.2552000  3
    121    120    132    138     1  0.0000000  0.6508444  3
    121    120    132    133     1  0.0000000  0.6508444  3
    121    120    132    134     1  0.0000000  0.6508444  3
    122    120    116    123     1  0.0000000  1.2552000  3
    122    120    132    138     1  0.0000000  0.6508444  3
    122    120    132    133     1  0.0000000  0.6508444  3
    122    120    132    134     1  0.0000000  0.6508444  3
    123    126    135    136     1  0.0000000  0.6508444  3
    123    126    135    137     1  0.0000000  0.6508444  3
    124    123    126    135     1  0.0000000  0.6508444  3
    124    123    126    127     1  0.0000000  0.6508444  3
    124    123    126    128     1  0.0000000  0.6508444  3
    125    123    126    135     1  0.0000000  0.6508444  3
    125    123    126    127     1  0.0000000  0.6508444  3
    125    123    126    128     1  0.0000000  0.6508444  3
    127    126    135    144     1  0.0000000  1.0460000  1
    127    126    135    144     1  0.0000000  0.0000000  3
    127    126    135    136     1  0.0000000  0.6508444  3
    127    126    135    137     1  0.0000000  0.6508444  3
    128    126    135    144     1  0.0000000  1.0460000  1
    128    126    135    144     1  0.0000000  0.0000000  3
    128    126    135    136     1  0.0000000  0.6508444  3
    128    126    135    137     1  0.0000000  0.6508444  3
    130    129    141    347     1  0.0000000  1.0460000  1
    130    129    141    347     1  0.0000000  0.0000000  3
    130    129    141    142     1  0.0000000  0.6508444  3
    130    129    141    143     1  0.0000000  0.6508444  3
    131    129    141    347     1  0.0000000  1.0460000  1
    131    129    141    347     1  0.0000000  0.0000000  3
    131    129    141    142     1  0.0000000  0.6508444  3
    131    129    141    143     1  0.0000000  0.6508444  3
    133    132    138    318     1  0.0000000  1.0460000  1
    133    132    138    318     1  0.0000000  0.0000000  3
    133    132    138    139     1  0.0000000  0.6508444  3
    133    132    138    140     1  0.0000000  0.6508444  3
    134    132    138    318     1  0.0000000  1.0460000  1
    134    132    138    318     1  0.0000000  0.0000000  3
    134    132    138    139     1  0.0000000  0.6508444  3
    134    132    138    140     1  0.0000000  0.6508444  3
    138    318    309    310     1  0.0000000  1.6038667  3
    138    318    309    311     1  0.0000000  1.6038667  3
    139    138    318    309     1  0.0000000  1.6038667  3
    140    138    318    309     1  0.0000000  1.6038667  3
    141    347    338    339     1  0.0000000  1.6038667  3
    141    347    338    340     1  0.0000000  1.6038667  3
    142    141    347    338     1  0.0000000  1.6038667  3
    143    141    347    338     1  0.0000000  1.6038667  3
    145    146    158    159     1  0.0000000  0.6508444  3
    145    146    158    160     1  0.0000000  0.6508444  3
    145    149    161    162     1  0.0000000  0.6508444  3
    145    149    161    163     1  0.0000000  0.6508444  3
    145    152    155    156     1  0.0000000  0.6508444  3
    145    152    155    157     1  0.0000000  0.6508444  3
    146    145    149    150     1  0.0000000  1.2552000  3
    146    145    149    151     1  0.0000000  1.2552000  3
    146    145    152    153     1  0.0000000  1.2552000  3
    146    145    152    154     1  0.0000000  1.2552000  3
    146    158    170    171     1  0.0000000  0.6508444  3
    146    158    170    172     1  0.0000000  0.6508444  3
    147    146    145    149     1  0.0000000  1.2552000  3
    147    146    145    152     1  0.0000000  1.2552000  3
    147    146    158    170     1  0.0000000  0.6508444  3
    147    146    158    159     1  0.0000000  0.6508444  3
    147    146    158    160     1  0.0000000  0.6508444  3
    148    146    145    149     1  0.0000000  1.2552000  3
    148    146    145    152     1  0.0000000  1.2552000  3
    148    146    158    170     1  0.0000000  0.6508444  3
    148    146    158    159     1  0.0000000  0.6508444  3
    148    146    158    160     1  0.0000000  0.6508444  3
    149    145    152    153     1  0.0000000  1.2552000  3
    149    145    152    154     1  0.0000000  1.2552000  3
    149    161    167    168     1  0.0000000  0.6508444  3
    149    161    167    169     1  0.0000000  0.6508444  3
    150    149    145    152     1  0.0000000  1.2552000  3
    150    149    161    167     1  0.0000000  0.6508444  3
    150    149    161    162     1  0.0000000  0.6508444  3
    150    149    161    163     1  0.0000000  0.6508444  3
    151    149    145    152     1  0.0000000  1.2552000  3
    151    149    161    167     1  0.0000000  0.6508444  3
    151    149    161    162     1  0.0000000  0.6508444  3
    151    149    161    163     1  0.0000000  0.6508444  3
    152    155    164    165     1  0.0000000  0.6508444  3
    152    155    164    166     1  0.0000000  0.6508444  3
    153    152    155    164     1  0.0000000  0.6508444  3
    153    152    155    156     1  0.0000000  0.6508444  3
    153    152    155    157     1  0.0000000  0.6508444  3
    154    152    155    164     1  0.0000000  0.6508444  3
    154    152    155    156     1  0.0000000  0.6508444  3
    154    152    155    157     1  0.0000000  0.6508444  3
    156    155    164    173     1  0.0000000  1.0460000  1
    156    155    164    173     1  0.0000000  0.0000000  3
    156    155    164    165     1  0.0000000  0.6508444  3
    156    155    164    166     1  0.0000000  0.6508444  3
    157    155    164    173     1  0.0000000  1.0460000  1
    157    155    164    173     1  0.0000000  0.0000000  3
    157    155    164    165     1  0.0000000  0.6508444  3
    157    155    164    166     1  0.0000000  0.6508444  3
    159    158    170    405     1  0.0000000  1.0460000  1
    159    158    170    405     1  0.0000000  0.0000000  3
    159    158    170    171     1  0.0000000  0.6508444  3
    159    158    170    172     1  0.0000000  0.6508444  3
    160    158    170    405     1  0.0000000  1.0460000  1
    160    158    170    405     1  0.0000000  0.0000000  3
    160    158    170    171     1  0.0000000  0.6508444  3
    160    158    170    172     1  0.0000000  0.6508444  3
    162    161    167    376     1  0.0000000  1.0460000  1
    162    161    167    376     1  0.0000000  0.0000000  3
    162    161    167    168     1  0.0000000  0.6508444  3
    162    161    167    169     1  0.0000000  0.6508444  3
    163    161    167    376     1  0.0000000  1.0460000  1
    163    161    167    376     1  0.0000000  0.0000000  3
    163    161    167    168     1  0.0000000  0.6508444  3
    163    161    167    169     1  0.0000000  0.6508444  3
    167    376    367    368     1  0.0000000  1.6038667  3
    167    376    367    369     1  0.0000000  1.6038667  3
    168    167    376    367     1  0.0000000  1.6038667  3
    169    167    376    367     1  0.0000000  1.6038667  3
    170    405    396    397     1  0.0000000  1.6038667  3
    170    405    396    398     1  0.0000000  1.6038667  3
    171    170    405    396     1  0.0000000  1.6038667  3
    172    170    405    396     1  0.0000000  1.6038667  3
    174    175    187    188     1  0.0000000  0.6508444  3
    174    175    187    189     1  0.0000000  0.6508444  3
    174    178    190    191     1  0.0000000  0.6508444  3
    174    178    190    192     1  0.0000000  0.6508444  3
    174    181    184    185     1  0.0000000  0.6508444  3
    174    181    184    186     1  0.0000000  0.6508444  3
    175    174    178    179     1  0.0000000  1.2552000  3
    175    174    178    180     1  0.0000000  1.2552000  3
    175    174    181    182     1  0.0000000  1.2552000  3
    175    174    181    183     1  0.0000000  1.2552000  3
    175    187    199    200     1  0.0000000  0.6508444  3
    175    187    199    201     1  0.0000000  0.6508444  3
    176    175    174    178     1  0.0000000  1.2552000  3
    176    175    174    181     1  0.0000000  1.2552000  3
    176    175    187    199     1  0.0000000  0.6508444  3
    176    175    187    188     1  0.0000000  0.6508444  3
    176    175    187    189     1  0.0000000  0.6508444  3
    177    175    174    178     1  0.0000000  1.2552000  3
    177    175    174    181     1  0.0000000  1.2552000  3
    177    175    187    199     1  0.0000000  0.6508444  3
    177    175    187    188     1  0.0000000  0.6508444  3
    177    175    187    189     1  0.0000000  0.6508444  3
    178    174    181    182     1  0.0000000  1.2552000  3
    178    174    181    183     1  0.0000000  1.2552000  3
    178    190    196    197     1  0.0000000  0.6508444  3
    178    190    196    198     1  0.0000000  0.6508444  3
    179    178    174    181     1  0.0000000  1.2552000  3
    179    178    190    196     1  0.0000000  0.6508444  3
    179    178    190    191     1  0.0000000  0.6508444  3
    179    178    190    192     1  0.0000000  0.6508444  3
    180    178    174    181     1  0.0000000  1.2552000  3
    180    178    190    196     1  0.0000000  0.6508444  3
    180    178    190    191     1  0.0000000  0.6508444  3
    180    178    190    192     1  0.0000000  0.6508444  3
    181    184    193    194     1  0.0000000  0.6508444  3
    181    184    193    195     1  0.0000000  0.6508444  3
    182    181    184    193     1  0.0000000  0.6508444  3
    182    181    184    185     1  0.0000000  0.6508444  3
    182    181    184    186     1  0.0000000  0.6508444  3
    183    181    184    193     1  0.0000000  0.6508444  3
    183    181    184    185     1  0.0000000  0.6508444  3
    183    181    184    186     1  0.0000000  0.6508444  3
    185    184    193    202     1  0.0000000  1.0460000  1
    185    184    193    202     1  0.0000000  0.0000000  3
    185    184    193    194     1  0.0000000  0.6508444  3
    185    184    193    195     1  0.0000000  0.6508444  3
    186    184    193    202     1  0.0000000  1.0460000  1
    186    184    193    202     1  0.0000000  0.0000000  3
    186    184    193    194     1  0.0000000  0.6508444  3
    186    184    193    195     1  0.0000000  0.6508444  3
    188    187    199    463     1  0.0000000  1.0460000  1
    188    187    199    463     1  0.0000000  0.0000000  3
    188    187    199    200     1  0.0000000  0.6508444  3
    188    187    199    201     1  0.0000000  0.6508444  3
    189    187    199    463     1  0.0000000  1.0460000  1
    189    187    199    463     1  0.0000000  0.0000000  3
    189    187    199    200     1  0.0000000  0.6508444  3
    189    187    199    201     1  0.0000000  0.6508444  3
    191    190    196    434     1  0.0000000  1.0460000  1
    191    190    196    434     1  0.0000000  0.0000000  3
    191    190    196    197     1  0.0000000  0.6508444  3
    191    190    196    198     1  0.0000000  0.6508444  3
    192    190    196    434     1  0.0000000  1.0460000  1
    192    190    196    434     1  0.0000000  0.0000000  3
    192    190    196    197     1  0.0000000  0.6508444  3
    192    190    196    198     1  0.0000000  0.6508444  3
    196    434    425    426     1  0.0000000  1.6038667  3
    196    434    425    427     1  0.0000000  1.6038667  3
    197    196    434    425     1  0.0000000  1.6038667  3
    198    196    434    425     1  0.0000000  1.6038667  3
    199    463    454    455     1  0.0000000  1.6038667  3
    199    463    454    456     1  0.0000000  1.6038667  3
    200    199    463    454     1  0.0000000  1.6038667  3
    201    199    463    454     1  0.0000000  1.6038667  3
    203    204    216    217     1  0.0000000  0.6508444  3
    203    204    216    218     1  0.0000000  0.6508444  3
    203    207    219    220     1  0.0000000  0.6508444  3
    203    207    219    221     1  0.0000000  0.6508444  3
    203    210    213    214     1  0.0000000  0.6508444  3
    203    210    213    215     1  0.0000000  0.6508444  3
    204    203    207    208     1  0.0000000  1.2552000  3
    204    203    207    209     1  0.0000000  1.2552000  3
    204    203    210    211     1  0.0000000  1.2552000  3
    204    203    210    212     1  0.0000000  1.2552000  3
    204    216    228    229     1  0.0000000  0.6508444  3
    204    216    228    230     1  0.0000000  0.6508444  3
    205    204    203    207     1  0.0000000  1.2552000  3
    205    204    203    210     1  0.0000000  1.2552000  3
    205    204    216    228     1  0.0000000  0.6508444  3
    205    204    216    217     1  0.0000000  0.6508444  3
    205    204    216    218     1  0.0000000  0.6508444  3
    206    204    203    207     1  0.0000000  1.2552000  3
    206    204    203    210     1  0.0000000  1.2552000  3
    206    204    216    228     1  0.0000000  0.6508444  3
    206    204    216    217     1  0.0000000  0.6508444  3
    206    204    216    218     1  0.0000000  0.6508444  3
    207    203    210    211     1  0.0000000  1.2552000  3
    207    203    210    212     1  0.0000000  1.2552000  3
    207    219    225    226     1  0.0000000  0.6508444  3
    207    219    225    227     1  0.0000000  0.6508444  3
    208    207    203    210     1  0.0000000  1.2552000  3
    208    207    219    225     1  0.0000000  0.6508444  3
    208    207    219    220     1  0.0000000  0.6508444  3
    208    207    219    221     1  0.0000000  0.6508444  3
    209    207    203    210     1  0.0000000  1.2552000  3
    209    207    219    225     1  0.0000000  0.6508444  3
    209    207    219    220     1  0.0000000  0.6508444  3
    209    207    219    221     1  0.0000000  0.6508444  3
    210    213    222    223     1  0.0000000  0.6508444  3
    210    213    222    224     1  0.0000000  0.6508444  3
    211    210    213    222     1  0.0000000  0.6508444  3
    211    210    213    214     1  0.0000000  0.6508444  3
    211    210    213    215     1  0.0000000  0.6508444  3
    212    210    213    222     1  0.0000000  0.6508444  3
    212    210    213    214     1  0.0000000  0.6508444  3
    212    210    213    215     1  0.0000000  0.6508444  3
    214    213    222    231     1  0.0000000  1.0460000  1
    214    213    222    231     1  0.0000000  0.0000000  3
    214    213    222    223     1  0.0000000  0.6508444  3
    214    213    222    224     1  0.0000000  0.6508444  3
    215    213    222    231     1  0.0000000  1.0460000  1
    215    213    222    231     1  0.0000000  0.0000000  3
    215    213    222    223     1  0.0000000  0.6508444  3
    215    213    222    224     1  0.0000000  0.6508444  3
    217    216    228    521     1  0.0000000  1.0460000  1
    217    216    228    521     1  0.0000000  0.0000000  3
    217    216    228    229     1  0.0000000  0.6508444  3
    217    216    228    230     1  0.0000000  0.6508444  3
    218    216    228    521     1  0.0000000  1.0460000  1
    218    216    228    521     1  0.0000000  0.0000000  3
    218    216    228    229     1  0.0000000  0.6508444  3
    218    216    228    230     1  0.0000000  0.6508444  3
    220    219    225    492     1  0.0000000  1.0460000  1
    220    219    225    492     1  0.0000000  0.0000000  3
    220    219    225    226     1  0.0000000  0.6508444  3
    220    219    225    227     1  0.0000000  0.6508444  3
    221    219    225    492     1  0.0000000  1.0460000  1
    221    219    225    492     1  0.0000000  0.0000000  3
    221    219    225    226     1  0.0000000  0.6508444  3
    221    219    225    227     1  0.0000000  0.6508444  3
    225    492    483    484     1  0.0000000  1.6038667  3
    225    492    483    485     1  0.0000000  1.6038667  3
    226    225    492    483     1  0.0000000  1.6038667  3
    227    225    492    483     1  0.0000000  1.6038667  3
    228    521    512    513     1  0.0000000  1.6038667  3
    228    521    512    514     1  0.0000000  1.6038667  3
    229    228    521    512     1  0.0000000  1.6038667  3
    230    228    521    512     1  0.0000000  1.6038667  3
    232    233    245    246     1  0.0000000  0.6508444  3
    232    233    245    247     1  0.0000000  0.6508444  3
    232    236    248    249     1  0.0000000  0.6508444  3
    232    236    248    250     1  0.0000000  0.6508444  3
    232    239    242    243     1  0.0000000  0.6508444  3
    232    239    242    244     1  0.0000000  0.6508444  3
    233    232    236    237     1  0.0000000  1.2552000  3
    233    232    236    238     1  0.0000000  1.2552000  3
    233    232    239    240     1  0.0000000  1.2552000  3
    233    232    239    241     1  0.0000000  1.2552000  3
    233    245    257    258     1  0.0000000  0.6508444  3
    233    245    257    259     1  0.0000000  0.6508444  3
    234    233    232    236     1  0.0000000  1.2552000  3
    234    233    232    239     1  0.0000000  1.2552000  3
    234    233    245    257     1  0.0000000  0.6508444  3
    234    233    245    246     1  0.0000000  0.6508444  3
    234    233    245    247     1  0.0000000  0.6508444  3
    235    233    232    236     1  0.0000000  1.2552000  3
    235    233    232    239     1  0.0000000  1.2552000  3
    235    233    245    257     1  0.0000000  0.6508444  3
    235    233    245    246     1  0.0000000  0.6508444  3
    235    233    245    247     1  0.0000000  0.6508444  3
    236    232    239    240     1  0.0000000  1.2552000  3
    236    232    239    241     1  0.0000000  1.2552000  3
    236    248    254    255     1  0.0000000  0.6508444  3
    236    248    254    256     1  0.0000000  0.6508444  3
    237    236    232    239     1  0.0000000  1.2552000  3
    237    236    248    254     1  0.0000000  0.6508444  3
    237    236    248    249     1  0.0000000  0.6508444  3
    237    236    248    250     1  0.0000000  0.6508444  3
    238    236    232    239     1  0.0000000  1.2552000  3
    238    236    248    254     1  0.0000000  0.6508444  3
    238    236    248    249     1  0.0000000  0.6508444  3
    238    236    248    250     1  0.0000000  0.6508444  3
    239    242    251    252     1  0.0000000  0.6508444  3
    239    242    251    253     1  0.0000000  0.6508444  3
    240    239    242    251     1  0.0000000  0.6508444  3
    240    239    242    243     1  0.0000000  0.6508444  3
    240    239    242    244     1  0.0000000  0.6508444  3
    241    239    242    251     1  0.0000000  0.6508444  3
    241    239    242    243     1  0.0000000  0.6508444  3
    241    239    242    244     1  0.0000000  0.6508444  3
    243    242    251    260     1  0.0000000  1.0460000  1
    243    242    251    260     1  0.0000000  0.0000000  3
    243    242    251    252     1  0.0000000  0.6508444  3
    243    242    251    253     1  0.0000000  0.6508444  3
    244    242    251    260     1  0.0000000  1.0460000  1
    244    242    251    260     1  0.0000000  0.0000000  3
    244    242    251    252     1  0.0000000  0.6508444  3
    244    242    251    253     1  0.0000000  0.6508444  3
    246    245    257    579     1  0.0000000  1.0460000  1
    246    245    257    579     1  0.0000000  0.0000000  3
    246    245    257    258     1  0.0000000  0.6508444  3
    246    245    257    259     1  0.0000000  0.6508444  3
    247    245    257    579     1  0.0000000  1.0460000  1
    247    245    257    579     1  0.0000000  0.0000000  3
    247    245    257    258     1  0.0000000  0.6508444  3
    247    245    257    259     1  0.0000000  0.6508444  3
    249    248    254    550     1  0.0000000  1.0460000  1
    249    248    254    550     1  0.0000000  0.0000000  3
    249    248    254    255     1  0.0000000  0.6508444  3
    249    248    254    256     1  0.0000000  0.6508444  3
    250    248    254    550     1  0.0000000  1.0460000  1
    250    248    254    550     1  0.0000000  0.0000000  3
    250    248    254    255     1  0.0000000  0.6508444  3
    250    248    254    256     1  0.0000000  0.6508444  3
    254    550    541    542     1  0.0000000  1.6038667  3
    254    550    541    543     1  0.0000000  1.6038667  3
    255    254    550    541     1  0.0000000  1.6038667  3
    256    254    550    541     1  0.0000000  1.6038667  3
    257    579    570    571     1  0.0000000  1.6038667  3
    257    579    570    572     1  0.0000000  1.6038667  3
    258    257    579    570     1  0.0000000  1.6038667  3
    259    257    579    570     1  0.0000000  1.6038667  3
    261    262    274    275     1  0.0000000  0.6508444  3
    261    262    274    276     1  0.0000000  0.6508444  3
    261    265    277    278     1  0.0000000  0.6508444  3
    261    265    277    279     1  0.0000000  0.6508444  3
    261    268    271    272     1  0.0000000  0.6508444  3
    261    268    271    273     1  0.0000000  0.6508444  3
    262    261    265    266     1  0.0000000  1.2552000  3
    262    261    265    267     1  0.0000000  1.2552000  3
    262    261    268    269     1  0.0000000  1.2552000  3
    262    261    268    270     1  0.0000000  1.2552000  3
    262    274    286    287     1  0.0000000  0.6508444  3
    262    274    286    288     1  0.0000000  0.6508444  3
    263    262    261    265     1  0.0000000  1.2552000  3
    263    262    261    268     1  0.0000000  1.2552000  3
    263    262    274    286     1  0.0000000  0.6508444  3
    263    262    274    275     1  0.0000000  0.6508444  3
    263    262    274    276     1  0.0000000  0.6508444  3
    264    262    261    265     1  0.0000000  1.2552000  3
    264    262    261    268     1  0.0000000  1.2552000  3
    264    262    274    286     1  0.0000000  0.6508444  3
    264    262    274    275     1  0.0000000  0.6508444  3
    264    262    274    276     1  0.0000000  0.6508444  3
    265    261    268    269     1  0.0000000  1.2552000  3
    265    261    268    270     1  0.0000000  1.2552000  3
    265    277    283    284     1  0.0000000  0.6508444  3
    265    277    283    285     1  0.0000000  0.6508444  3
    266    265    261    268     1  0.0000000  1.2552000  3
    266    265    277    283     1  0.0000000  0.6508444  3
    266    265    277    278     1  0.0000000  0.6508444  3
    266    265    277    279     1  0.0000000  0.6508444  3
    267    265    261    268     1  0.0000000  1.2552000  3
    267    265    277    283     1  0.0000000  0.6508444  3
    267    265    277    278     1  0.0000000  0.6508444  3
    267    265    277    279     1  0.0000000  0.6508444  3
    268    271    280    281     1  0.0000000  0.6508444  3
    268    271    280    282     1  0.0000000  0.6508444  3
    269    268    271    280     1  0.0000000  0.6508444  3
    269    268    271    272     1  0.0000000  0.6508444  3
    269    268    271    273     1  0.0000000  0.6508444  3
    270    268    271    280     1  0.0000000  0.6508444  3
    270    268    271    272     1  0.0000000  0.6508444  3
    270    268    271    273     1  0.0000000  0.6508444  3
    272    271    280    289     1  0.0000000  1.0460000  1
    272    271    280    289     1  0.0000000  0.0000000  3
    272    271    280    281     1  0.0000000  0.6508444  3
    272    271    280    282     1  0.0000000  0.6508444  3
    273    271    280    289     1  0.0000000  1.0460000  1
    273    271    280    289     1  0.0000000  0.0000000  3
    273    271    280    281     1  0.0000000  0.6508444  3
    273    271    280    282     1  0.0000000  0.6508444  3
    275    274    286    637     1  0.0000000  1.0460000  1
    275    274    286    637     1  0.0000000  0.0000000  3
    275    274    286    287     1  0.0000000  0.6508444  3
    275    274    286    288     1  0.0000000  0.6508444  3
    276    274    286    637     1  0.0000000  1.0460000  1
    276    274    286    637     1  0.0000000  0.0000000  3
    276    274    286    287     1  0.0000000  0.6508444  3
    276    274    286    288     1  0.0000000  0.6508444  3
    278    277    283    608     1  0.0000000  1.0460000  1
    278    277    283    608     1  0.0000000  0.0000000  3
    278    277    283    284     1  0.0000000  0.6508444  3
    278    277    283    285     1  0.0000000  0.6508444  3
    279    277    283    608     1  0.0000000  1.0460000  1
    279    277    283    608     1  0.0000000  0.0000000  3
    279    277    283    284     1  0.0000000  0.6508444  3
    279    277    283    285     1  0.0000000  0.6508444  3
    283    608    599    600     1  0.0000000  1.6038667  3
    283    608    599    601     1  0.0000000  1.6038667  3
    284    283    608    599     1  0.0000000  1.6038667  3
    285    283    608    599     1  0.0000000  1.6038667  3
    286    637    628    629     1  0.0000000  1.6038667  3
    286    637    628    630     1  0.0000000  1.6038667  3
    287    286    637    628     1  0.0000000  1.6038667  3
    288    286    637    628     1  0.0000000  1.6038667  3
    290    291    303    304     1  0.0000000  0.6508444  3
    290    291    303    305     1  0.0000000  0.6508444  3
    290    294    306    307     1  0.0000000  0.6508444  3
    290    294    306    308     1  0.0000000  0.6508444  3
    290    297    300    301     1  0.0000000  0.6508444  3
    290    297    300    302     1  0.0000000  0.6508444  3
    291    290    294    295     1  0.0000000  1.2552000  3
    291    290    294    296     1  0.0000000  1.2552000  3
    291    290    297    298     1  0.0000000  1.2552000  3
    291    290    297    299     1  0.0000000  1.2552000  3
    291    303    315    316     1  0.0000000  0.6508444  3
    291    303    315    317     1  0.0000000  0.6508444  3
    292    291    290    294     1  0.0000000  1.2552000  3
    292    291    290    297     1  0.0000000  1.2552000  3
    292    291    303    315     1  0.0000000  0.6508444  3
    292    291    303    304     1  0.0000000  0.6508444  3
    292    291    303    305     1  0.0000000  0.6508444  3
    293    291    290    294     1  0.0000000  1.2552000  3
    293    291    290    297     1  0.0000000  1.2552000  3
    293    291    303    315     1  0.0000000  0.6508444  3
    293    291    303    304     1  0.0000000  0.6508444  3
    293    291    303    305     1  0.0000000  0.6508444  3
    294    290    297    298     1  0.0000000  1.2552000  3
    294    290    297    299     1  0.0000000  1.2552000  3
    294    306    312    313     1  0.0000000  0.6508444  3
    294    306    312    314     1  0.0000000  0.6508444  3
    295    294    290    297     1  0.0000000  1.2552000  3
    295    294    306    312     1  0.0000000  0.6508444  3
    295    294    306    307     1  0.0000000  0.6508444  3
    295    294    306    308     1  0.0000000  0.6508444  3
    296    294    290    297     1  0.0000000  1.2552000  3
    296    294    306    312     1  0.0000000  0.6508444  3
    296    294    306    307     1  0.0000000  0.6508444  3
    296    294    306    308     1  0.0000000  0.6508444  3
    297    300    309    310     1  0.0000000  0.6508444  3
    297    300    309    311     1  0.0000000  0.6508444  3
    298    297    300    309     1  0.0000000  0.6508444  3
    298    297    300    301     1  0.0000000  0.6508444  3
    298    297    300    302     1  0.0000000  0.6508444  3
    299    297    300    309     1  0.0000000  0.6508444  3
    299    297    300    301     1  0.0000000  0.6508444  3
    299    297    300    302     1  0.0000000  0.6508444  3
    301    300    309    318     1  0.0000000  1.0460000  1
    301    300    309    318     1  0.0000000  0.0000000  3
    301    300    309    310     1  0.0000000  0.6508444  3
    301    300    309    311     1  0.0000000  0.6508444  3
    302    300    309    318     1  0.0000000  1.0460000  1
    302    300    309    318     1  0.0000000  0.0000000  3
    302    300    309    310     1  0.0000000  0.6508444  3
    302    300    309    311     1  0.0000000  0.6508444  3
    304    303    315    695     1  0.0000000  1.0460000  1
    304    303    315    695     1  0.0000000  0.0000000  3
    304    303    315    316     1  0.0000000  0.6508444  3
    304    303    315    317     1  0.0000000  0.6508444  3
    305    303    315    695     1  0.0000000  1.0460000  1
    305    303    315    695     1  0.0000000  0.0000000  3
    305    303    315    316     1  0.0000000  0.6508444  3
    305    303    315    317     1  0.0000000  0.6508444  3
    307    306    312    666     1  0.0000000  1.0460000  1
    307    306    312    666     1  0.0000000  0.0000000  3
    307    306    312    313     1  0.0000000  0.6508444  3
    307    306    312    314     1  0.0000000  0.6508444  3
    308    306    312    666     1  0.0000000  1.0460000  1
    308    306    312    666     1  0.0000000  0.0000000  3
    308    306    312    313     1  0.0000000  0.6508444  3
    308    306    312    314     1  0.0000000  0.6508444  3
    312    666    638    639     1  0.0000000  1.6038667  3
    312    666    638    640     1  0.0000000  1.6038667  3
    313    312    666    638     1  0.0000000  1.6038667  3
    314    312    666    638     1  0.0000000  1.6038667  3
    315    695    667    668     1  0.0000000  1.6038667  3
    315    695    667    669     1  0.0000000  1.6038667  3
    316    315    695    667     1  0.0000000  1.6038667  3
    317    315    695    667     1  0.0000000  1.6038667  3
    319    320    332    333     1  0.0000000  0.6508444  3
    319    320    332    334     1  0.0000000  0.6508444  3
    319    323    335    336     1  0.0000000  0.6508444  3
    319    323    335    337     1  0.0000000  0.6508444  3
    319    326    329    330     1  0.0000000  0.6508444  3
    319    326    329    331     1  0.0000000  0.6508444  3
    320    319    323    324     1  0.0000000  1.2552000  3
    320    319    323    325     1  0.0000000  1.2552000  3
    320    319    326    327     1  0.0000000  1.2552000  3
    320    319    326    328     1  0.0000000  1.2552000  3
    320    332    344    345     1  0.0000000  0.6508444  3
    320    332    344    346     1  0.0000000  0.6508444  3
    321    320    319    323     1  0.0000000  1.2552000  3
    321    320    319    326     1  0.0000000  1.2552000  3
    321    320    332    344     1  0.0000000  0.6508444  3
    321    320    332    333     1  0.0000000  0.6508444  3
    321    320    332    334     1  0.0000000  0.6508444  3
    322    320    319    323     1  0.0000000  1.2552000  3
    322    320    319    326     1  0.0000000  1.2552000  3
    322    320    332    344     1  0.0000000  0.6508444  3
    322    320    332    333     1  0.0000000  0.6508444  3
    322    320    332    334     1  0.0000000  0.6508444  3
    323    319    326    327     1  0.0000000  1.2552000  3
    323    319    326    328     1  0.0000000  1.2552000  3
    323    335    341    342     1  0.0000000  0.6508444  3
    323    335    341    343     1  0.0000000  0.6508444  3
    324    323    319    326     1  0.0000000  1.2552000  3
    324    323    335    341     1  0.0000000  0.6508444  3
    324    323    335    336     1  0.0000000  0.6508444  3
    324    323    335    337     1  0.0000000  0.6508444  3
    325    323    319    326     1  0.0000000  1.2552000  3
    325    323    335    341     1  0.0000000  0.6508444  3
    325    323    335    336     1  0.0000000  0.6508444  3
    325    323    335    337     1  0.0000000  0.6508444  3
    326    329    338    339     1  0.0000000  0.6508444  3
    326    329    338    340     1  0.0000000  0.6508444  3
    327    326    329    338     1  0.0000000  0.6508444  3
    327    326    329    330     1  0.0000000  0.6508444  3
    327    326    329    331     1  0.0000000  0.6508444  3
    328    326    329    338     1  0.0000000  0.6508444  3
    328    326    329    330     1  0.0000000  0.6508444  3
    328    326    329    331     1  0.0000000  0.6508444  3
    330    329    338    347     1  0.0000000  1.0460000  1
    330    329    338    347     1  0.0000000  0.0000000  3
    330    329    338    339     1  0.0000000  0.6508444  3
    330    329    338    340     1  0.0000000  0.6508444  3
    331    329    338    347     1  0.0000000  1.0460000  1
    331    329    338    347     1  0.0000000  0.0000000  3
    331    329    338    339     1  0.0000000  0.6508444  3
    331    329    338    340     1  0.0000000  0.6508444  3
    333    332    344    753     1  0.0000000  1.0460000  1
    333    332    344    753     1  0.0000000  0.0000000  3
    333    332    344    345     1  0.0000000  0.6508444  3
    333    332    344    346     1  0.0000000  0.6508444  3
    334    332    344    753     1  0.0000000  1.0460000  1
    334    332    344    753     1  0.0000000  0.0000000  3
    334    332    344    345     1  0.0000000  0.6508444  3
    334    332    344    346     1  0.0000000  0.6508444  3
    336    335    341    724     1  0.0000000  1.0460000  1
    336    335    341    724     1  0.0000000  0.0000000  3
    336    335    341    342     1  0.0000000  0.6508444  3
    336    335    341    343     1  0.0000000  0.6508444  3
    337    335    341    724     1  0.0000000  1.0460000  1
    337    335    341    724     1  0.0000000  0.0000000  3
    337    335    341    342     1  0.0000000  0.6508444  3
    337    335    341    343     1  0.0000000  0.6508444  3
    341    724    696    697     1  0.0000000  1.6038667  3
    341    724    696    698     1  0.0000000  1.6038667  3
    342    341    724    696     1  0.0000000  1.6038667  3
    343    341    724    696     1  0.0000000  1.6038667  3
    344    753    725    726     1  0.0000000  1.6038667  3
    344    753    725    727     1  0.0000000  1.6038667  3
    345    344    753    725     1  0.0000000  1.6038667  3
    346    344    753    725     1  0.0000000  1.6038667  3
    348    349    361    362     1  0.0000000  0.6508444  3
    348    349    361    363     1  0.0000000  0.6508444  3
    348    352    364    365     1  0.0000000  0.6508444  3
    348    352    364    366     1  0.0000000  0.6508444  3
    348    355    358    359     1  0.0000000  0.6508444  3
    348    355    358    360     1  0.0000000  0.6508444  3
    349    348    352    353     1  0.0000000  1.2552000  3
    349    348    352    354     1  0.0000000  1.2552000  3
    349    348    355    356     1  0.0000000  1.2552000  3
    349    348    355    357     1  0.0000000  1.2552000  3
    349    361    373    374     1  0.0000000  0.6508444  3
    349    361    373    375     1  0.0000000  0.6508444  3
    350    349    348    352     1  0.0000000  1.2552000  3
    350    349    348    355     1  0.0000000  1.2552000  3
    350    349    361    373     1  0.0000000  0.6508444  3
    350    349    361    362     1  0.0000000  0.6508444  3
    350    349    361    363     1  0.0000000  0.6508444  3
    351    349    348    352     1  0.0000000  1.2552000  3
    351    349    348    355     1  0.0000000  1.2552000  3
    351    349    361    373     1  0.0000000  0.6508444  3
    351    349    361    362     1  0.0000000  0.6508444  3
    351    349    361    363     1  0.0000000  0.6508444  3
    352    348    355    356     1  0.0000000  1.2552000  3
    352    348    355    357     1  0.0000000  1.2552000  3
    352    364    370    371     1  0.0000000  0.6508444  3
    352    364    370    372     1  0.0000000  0.6508444  3
    353    352    348    355     1  0.0000000  1.2552000  3
    353    352    364    370     1  0.0000000  0.6508444  3
    353    352    364    365     1  0.0000000  0.6508444  3
    353    352    364    366     1  0.0000000  0.6508444  3
    354    352    348    355     1  0.0000000  1.2552000  3
    354    352    364    370     1  0.0000000  0.6508444  3
    354    352    364    365     1  0.0000000  0.6508444  3
    354    352    364    366     1  0.0000000  0.6508444  3
    355    358    367    368     1  0.0000000  0.6508444  3
    355    358    367    369     1  0.0000000  0.6508444  3
    356    355    358    367     1  0.0000000  0.6508444  3
    356    355    358    359     1  0.0000000  0.6508444  3
    356    355    358    360     1  0.0000000  0.6508444  3
    357    355    358    367     1  0.0000000  0.6508444  3
    357    355    358    359     1  0.0000000  0.6508444  3
    357    355    358    360     1  0.0000000  0.6508444  3
    359    358    367    376     1  0.0000000  1.0460000  1
    359    358    367    376     1  0.0000000  0.0000000  3
    359    358    367    368     1  0.0000000  0.6508444  3
    359    358    367    369     1  0.0000000  0.6508444  3
    360    358    367    376     1  0.0000000  1.0460000  1
    360    358    367    376     1  0.0000000  0.0000000  3
    360    358    367    368     1  0.0000000  0.6508444  3
    360    358    367    369     1  0.0000000  0.6508444  3
    362    361    373    811     1  0.0000000  1.0460000  1
    362    361    373    811     1  0.0000000  0.0000000  3
    362    361    373    374     1  0.0000000  0.6508444  3
    362    361    373    375     1  0.0000000  0.6508444  3
    363    361    373    811     1  0.0000000  1.0460000  1
    363    361    373    811     1  0.0000000  0.0000000  3
    363    361    373    374     1  0.0000000  0.6508444  3
    363    361    373    375     1  0.0000000  0.6508444  3
    365    364    370    782     1  0.0000000  1.0460000  1
    365    364    370    782     1  0.0000000  0.0000000  3
    365    364    370    371     1  0.0000000  0.6508444  3
    365    364    370    372     1  0.0000000  0.6508444  3
    366    364    370    782     1  0.0000000  1.0460000  1
    366    364    370    782     1  0.0000000  0.0000000  3
    366    364    370    371     1  0.0000000  0.6508444  3
    366    364    370    372     1  0.0000000  0.6508444  3
    370    782    754    755     1  0.0000000  1.6038667  3
    370    782    754    756     1  0.0000000  1.6038667  3
    371    370    782    754     1  0.0000000  1.6038667  3
    372    370    782    754     1  0.0000000  1.6038667  3
    373    811    783    784     1  0.0000000  1.6038667  3
    373    811    783    785     1  0.0000000  1.6038667  3
    374    373    811    783     1  0.0000000  1.6038667  3
    375    373    811    783     1  0.0000000  1.6038667  3
    377    378    390    391     1  0.0000000  0.6508444  3
    377    378    390    392     1  0.0000000  0.6508444  3
    377    381    393    394     1  0.0000000  0.6508444  3
    377    381    393    395     1  0.0000000  0.6508444  3
    377    384    387    388     1  0.0000000  0.6508444  3
    377    384    387    389     1  0.0000000  0.6508444  3
    378    377    381    382     1  0.0000000  1.2552000  3
    378    377    381    383     1  0.0000000  1.2552000  3
    378    377    384    385     1  0.0000000  1.2552000  3
    378    377    384    386     1  0.0000000  1.2552000  3
    378    390    402    403     1  0.0000000  0.6508444  3
    378    390    402    404     1  0.0000000  0.6508444  3
    379    378    377    381     1  0.0000000  1.2552000  3
    379    378    377    384     1  0.0000000  1.2552000  3
    379    378    390    402     1  0.0000000  0.6508444  3
    379    378    390    391     1  0.0000000  0.6508444  3
    379    378    390    392     1  0.0000000  0.6508444  3
    380    378    377    381     1  0.0000000  1.2552000  3
    380    378    377    384     1  0.0000000  1.2552000  3
    380    378    390    402     1  0.0000000  0.6508444  3
    380    378    390    391     1  0.0000000  0.6508444  3
    380    378    390    392     1  0.0000000  0.6508444  3
    381    377    384    385     1  0.0000000  1.2552000  3
    381    377    384    386     1  0.0000000  1.2552000  3
    381    393    399    400     1  0.0000000  0.6508444  3
    381    393    399    401     1  0.0000000  0.6508444  3
    382    381    377    384     1  0.0000000  1.2552000  3
    382    381    393    399     1  0.0000000  0.6508444  3
    382    381    393    394     1  0.0000000  0.6508444  3
    382    381    393    395     1  0.0000000  0.6508444  3
    383    381    377    384     1  0.0000000  1.2552000  3
    383    381    393    399     1  0.0000000  0.6508444  3
    383    381    393    394     1  0.0000000  0.6508444  3
    383    381    393    395     1  0.0000000  0.6508444  3
    384    387    396    397     1  0.0000000  0.6508444  3
    384    387    396    398     1  0.0000000  0.6508444  3
    385    384    387    396     1  0.0000000  0.6508444  3
    385    384    387    388     1  0.0000000  0.6508444  3
    385    384    387    389     1  0.0000000  0.6508444  3
    386    384    387    396     1  0.0000000  0.6508444  3
    386    384    387    388     1  0.0000000  0.6508444  3
    386    384    387    389     1  0.0000000  0.6508444  3
    388    387    396    405     1  0.0000000  1.0460000  1
    388    387    396    405     1  0.0000000  0.0000000  3
    388    387    396    397     1  0.0000000  0.6508444  3
    388    387    396    398     1  0.0000000  0.6508444  3
    389    387    396    405     1  0.0000000  1.0460000  1
    389    387    396    405     1  0.0000000  0.0000000  3
    389    387    396    397     1  0.0000000  0.6508444  3
    389    387    396    398     1  0.0000000  0.6508444  3
    391    390    402    869     1  0.0000000  1.0460000  1
    391    390    402    869     1  0.0000000  0.0000000  3
    391    390    402    403     1  0.0000000  0.6508444  3
    391    390    402    404     1  0.0000000  0.6508444  3
    392    390    402    869     1  0.0000000  1.0460000  1
    392    390    402    869     1  0.0000000  0.0000000  3
    392    390    402    403     1  0.0000000  0.6508444  3
    392    390    402    404     1  0.0000000  0.6508444  3
    394    393    399    840     1  0.0000000  1.0460000  1
    394    393    399    840     1  0.0000000  0.0000000  3
    394    393    399    400     1  0.0000000  0.6508444  3
    394    393    399    401     1  0.0000000  0.6508444  3
    395    393    399    840     1  0.0000000  1.0460000  1
    395    393    399    840     1  0.0000000  0.0000000  3
    395    393    399    400     1  0.0000000  0.6508444  3
    395    393    399    401     1  0.0000000  0.6508444  3
    399    840    812    813     1  0.0000000  1.6038667  3
    399    840    812    814     1  0.0000000  1.6038667  3
    400    399    840    812     1  0.0000000  1.6038667  3
    401    399    840    812     1  0.0000000  1.6038667  3
    402    869    841    842     1  0.0000000  1.6038667  3
    402    869    841    843     1  0.0000000  1.6038667  3
    403    402    869    841     1  0.0000000  1.6038667  3
    404    402    869    841     1  0.0000000  1.6038667  3
    406    407    419    420     1  0.0000000  0.6508444  3
    406    407    419    421     1  0.0000000  0.6508444  3
    406    410    422    423     1  0.0000000  0.6508444  3
    406    410    422    424     1  0.0000000  0.6508444  3
    406    413    416    417     1  0.0000000  0.6508444  3
    406    413    416    418     1  0.0000000  0.6508444  3
    407    406    410    411     1  0.0000000  1.2552000  3
    407    406    410    412     1  0.0000000  1.2552000  3
    407    406    413    414     1  0.0000000  1.2552000  3
    407    406    413    415     1  0.0000000  1.2552000  3
    407    419    431    432     1  0.0000000  0.6508444  3
    407    419    431    433     1  0.0000000  0.6508444  3
    408    407    406    410     1  0.0000000  1.2552000  3
    408    407    406    413     1  0.0000000  1.2552000  3
    408    407    419    431     1  0.0000000  0.6508444  3
    408    407    419    420     1  0.0000000  0.6508444  3
    408    407    419    421     1  0.0000000  0.6508444  3
    409    407    406    410     1  0.0000000  1.2552000  3
    409    407    406    413     1  0.0000000  1.2552000  3
    409    407    419    431     1  0.0000000  0.6508444  3
    409    407    419    420     1  0.0000000  0.6508444  3
    409    407    419    421     1  0.0000000  0.6508444  3
    410    406    413    414     1  0.0000000  1.2552000  3
    410    406    413    415     1  0.0000000  1.2552000  3
    410    422    428    429     1  0.0000000  0.6508444  3
    410    422    428    430     1  0.0000000  0.6508444  3
    411    410    406    413     1  0.0000000  1.2552000  3
    411    410    422    428     1  0.0000000  0.6508444  3
    411    410    422    423     1  0.0000000  0.6508444  3
    411    410    422    424     1  0.0000000  0.6508444  3
    412    410    406    413     1  0.0000000  1.2552000  3
    412    410    422    428     1  0.0000000  0.6508444  3
    412    410    422    423     1  0.0000000  0.6508444  3
    412    410    422    424     1  0.0000000  0.6508444  3
    413    416    425    426     1  0.0000000  0.6508444  3
    413    416    425    427     1  0.0000000  0.6508444  3
    414    413    416    425     1  0.0000000  0.6508444  3
    414    413    416    417     1  0.0000000  0.6508444  3
    414    413    416    418     1  0.0000000  0.6508444  3
    415    413    416    425     1  0.0000000  0.6508444  3
    415    413    416    417     1  0.0000000  0.6508444  3
    415    413    416    418     1  0.0000000  0.6508444  3
    417    416    425    434     1  0.0000000  1.0460000  1
    417    416    425    434     1  0.0000000  0.0000000  3
    417    416    425    426     1  0.0000000  0.6508444  3
    417    416    425    427     1  0.0000000  0.6508444  3
    418    416    425    434     1  0.0000000  1.0460000  1
    418    416    425    434     1  0.0000000  0.0000000  3
    418    416    425    426     1  0.0000000  0.6508444  3
    418    416    425    427     1  0.0000000  0.6508444  3
    420    419    431    927     1  0.0000000  1.0460000  1
    420    419    431    927     1  0.0000000  0.0000000  3
    420    419    431    432     1  0.0000000  0.6508444  3
    420    419    431    433     1  0.0000000  0.6508444  3
    421    419    431    927     1  0.0000000  1.0460000  1
    421    419    431    927     1  0.0000000  0.0000000  3
    421    419    431    432     1  0.0000000  0.6508444  3
    421    419    431    433     1  0.0000000  0.6508444  3
    423    422    428    898     1  0.0000000  1.0460000  1
    423    422    428    898     1  0.0000000  0.0000000  3
    423    422    428    429     1  0.0000000  0.6508444  3
    423    422    428    430     1  0.0000000  0.6508444  3
    424    422    428    898     1  0.0000000  1.0460000  1
    424    422    428    898     1  0.0000000  0.0000000  3
    424    422    428    429     1  0.0000000  0.6508444  3
    424    422    428    430     1  0.0000000  0.6508444  3
    428    898    870    871     1  0.0000000  1.6038667  3
    428    898    870    872     1  0.0000000  1.6038667  3
    429    428    898    870     1  0.0000000  1.6038667  3
    430    428    898    870     1  0.0000000  1.6038667  3
    431    927    899    900     1  0.0000000  1.6038667  3
    431    927    899    901     1  0.0000000  1.6038667  3
    432    431    927    899     1  0.0000000  1.6038667  3
    433    431    927    899     1  0.0000000  1.6038667  3
    435    436    448    449     1  0.0000000  0.6508444  3
    435    436    448    450     1  0.0000000  0.6508444  3
    435    439    451    452     1  0.0000000  0.6508444  3
    435    439    451    453     1  0.0000000  0.6508444  3
    435    442    445    446     1  0.0000000  0.6508444  3
    435    442    445    447     1  0.0000000  0.6508444  3
    436    435    439    440     1  0.0000000  1.2552000  3
    436    435    439    441     1  0.0000000  1.2552000  3
    436    435    442    443     1  0.0000000  1.2552000  3
    436    435    442    444     1  0.0000000  1.2552000  3
    436    448    460    461     1  0.0000000  0.6508444  3
    436    448    460    462     1  0.0000000  0.6508444  3
    437    436    435    439     1  0.0000000  1.2552000  3
    437    436    435    442     1  0.0000000  1.2552000  3
    437    436    448    460     1  0.0000000  0.6508444  3
    437    436    448    449     1  0.0000000  0.6508444  3
    437    436    448    450     1  0.0000000  0.6508444  3
    438    436    435    439     1  0.0000000  1.2552000  3
    438    436    435    442     1  0.0000000  1.2552000  3
    438    436    448    460     1  0.0000000  0.6508444  3
    438    436    448    449     1  0.0000000  0.6508444  3
    438    436    448    450     1  0.0000000  0.6508444  3
    439    435    442    443     1  0.0000000  1.2552000  3
    439    435    442    444     1  0.0000000  1.2552000  3
    439    451    457    458     1  0.0000000  0.6508444  3
    439    451    457    459     1  0.0000000  0.6508444  3
    440    439    435    442     1  0.0000000  1.2552000  3
    440    439    451    457     1  0.0000000  0.6508444  3
    440    439    451    452     1  0.0000000  0.6508444  3
    440    439    451    453     1  0.0000000  0.6508444  3
    441    439    435    442     1  0.0000000  1.2552000  3
    441    439    451    457     1  0.0000000  0.6508444  3
    441    439    451    452     1  0.0000000  0.6508444  3
    441    439    451    453     1  0.0000000  0.6508444  3
    442    445    454    455     1  0.0000000  0.6508444  3
    442    445    454    456     1  0.0000000  0.6508444  3
    443    442    445    454     1  0.0000000  0.6508444  3
    443    442    445    446     1  0.0000000  0.6508444  3
    443    442    445    447     1  0.0000000  0.6508444  3
    444    442    445    454     1  0.0000000  0.6508444  3
    444    442    445    446     1  0.0000000  0.6508444  3
    444    442    445    447     1  0.0000000  0.6508444  3
    446    445    454    463     1  0.0000000  1.0460000  1
    446    445    454    463     1  0.0000000  0.0000000  3
    446    445    454    455     1  0.0000000  0.6508444  3
    446    445    454    456     1  0.0000000  0.6508444  3
    447    445    454    463     1  0.0000000  1.0460000  1
    447    445    454    463     1  0.0000000  0.0000000  3
    447    445    454    455     1  0.0000000  0.6508444  3
    447    445    454    456     1  0.0000000  0.6508444  3
    449    448    460    985     1  0.0000000  1.0460000  1
    449    448    460    985     1  0.0000000  0.0000000  3
    449    448    460    461     1  0.0000000  0.6508444  3
    449    448    460    462     1  0.0000000  0.6508444  3
    450    448    460    985     1  0.0000000  1.0460000  1
    450    448    460    985     1  0.0000000  0.0000000  3
    450    448    460    461     1  0.0000000  0.6508444  3
    450    448    460    462     1  0.0000000  0.6508444  3
    452    451    457    956     1  0.0000000  1.0460000  1
    452    451    457    956     1  0.0000000  0.0000000  3
    452    451    457    458     1  0.0000000  0.6508444  3
    452    451    457    459     1  0.0000000  0.6508444  3
    453    451    457    956     1  0.0000000  1.0460000  1
    453    451    457    956     1  0.0000000  0.0000000  3
    453    451    457    458     1  0.0000000  0.6508444  3
    453    451    457    459     1  0.0000000  0.6508444  3
    457    956    928    929     1  0.0000000  1.6038667  3
    457    956    928    930     1  0.0000000  1.6038667  3
    458    457    956    928     1  0.0000000  1.6038667  3
    459    457    956    928     1  0.0000000  1.6038667  3
    460    985    957    958     1  0.0000000  1.6038667  3
    460    985    957    959     1  0.0000000  1.6038667  3
    461    460    985    957     1  0.0000000  1.6038667  3
    462    460    985    957     1  0.0000000  1.6038667  3
    464    465    477    478     1  0.0000000  0.6508444  3
    464    465    477    479     1  0.0000000  0.6508444  3
    464    468    480    481     1  0.0000000  0.6508444  3
    464    468    480    482     1  0.0000000  0.6508444  3
    464    471    474    475     1  0.0000000  0.6508444  3
    464    471    474    476     1  0.0000000  0.6508444  3
    465    464    468    469     1  0.0000000  1.2552000  3
    465    464    468    470     1  0.0000000  1.2552000  3
    465    464    471    472     1  0.0000000  1.2552000  3
    465    464    471    473     1  0.0000000  1.2552000  3
    465    477    489    490     1  0.0000000  0.6508444  3
    465    477    489    491     1  0.0000000  0.6508444  3
    466    465    464    468     1  0.0000000  1.2552000  3
    466    465    464    471     1  0.0000000  1.2552000  3
    466    465    477    489     1  0.0000000  0.6508444  3
    466    465    477    478     1  0.0000000  0.6508444  3
    466    465    477    479     1  0.0000000  0.6508444  3
    467    465    464    468     1  0.0000000  1.2552000  3
    467    465    464    471     1  0.0000000  1.2552000  3
    467    465    477    489     1  0.0000000  0.6508444  3
    467    465    477    478     1  0.0000000  0.6508444  3
    467    465    477    479     1  0.0000000  0.6508444  3
    468    464    471    472     1  0.0000000  1.2552000  3
    468    464    471    473     1  0.0000000  1.2552000  3
    468    480    486    487     1  0.0000000  0.6508444  3
    468    480    486    488     1  0.0000000  0.6508444  3
    469    468    464    471     1  0.0000000  1.2552000  3
    469    468    480    486     1  0.0000000  0.6508444  3
    469    468    480    481     1  0.0000000  0.6508444  3
    469    468    480    482     1  0.0000000  0.6508444  3
    470    468    464    471     1  0.0000000  1.2552000  3
    470    468    480    486     1  0.0000000  0.6508444  3
    470    468    480    481     1  0.0000000  0.6508444  3
    470    468    480    482     1  0.0000000  0.6508444  3
    471    474    483    484     1  0.0000000  0.6508444  3
    471    474    483    485     1  0.0000000  0.6508444  3
    472    471    474    483     1  0.0000000  0.6508444  3
    472    471    474    475     1  0.0000000  0.6508444  3
    472    471    474    476     1  0.0000000  0.6508444  3
    473    471    474    483     1  0.0000000  0.6508444  3
    473    471    474    475     1  0.0000000  0.6508444  3
    473    471    474    476     1  0.0000000  0.6508444  3
    475    474    483    492     1  0.0000000  1.0460000  1
    475    474    483    492     1  0.0000000  0.0000000  3
    475    474    483    484     1  0.0000000  0.6508444  3
    475    474    483    485     1  0.0000000  0.6508444  3
    476    474    483    492     1  0.0000000  1.0460000  1
    476    474    483    492     1  0.0000000  0.0000000  3
    476    474    483    484     1  0.0000000  0.6508444  3
    476    474    483    485     1  0.0000000  0.6508444  3
    478    477    489   1043     1  0.0000000  1.0460000  1
    478    477    489   1043     1  0.0000000  0.0000000  3
    478    477    489    490     1  0.0000000  0.6508444  3
    478    477    489    491     1  0.0000000  0.6508444  3
    479    477    489   1043     1  0.0000000  1.0460000  1
    479    477    489   1043     1  0.0000000  0.0000000  3
    479    477    489    490     1  0.0000000  0.6508444  3
    479    477    489    491     1  0.0000000  0.6508444  3
    481    480    486   1014     1  0.0000000  1.0460000  1
    481    480    486   1014     1  0.0000000  0.0000000  3
    481    480    486    487     1  0.0000000  0.6508444  3
    481    480    486    488     1  0.0000000  0.6508444  3
    482    480    486   1014     1  0.0000000  1.0460000  1
    482    480    486   1014     1  0.0000000  0.0000000  3
    482    480    486    487     1  0.0000000  0.6508444  3
    482    480    486    488     1  0.0000000  0.6508444  3
    486   1014    986    987     1  0.0000000  1.6038667  3
    486   1014    986    988     1  0.0000000  1.6038667  3
    487    486   1014    986     1  0.0000000  1.6038667  3
    488    486   1014    986     1  0.0000000  1.6038667  3
    489   1043   1015   1016     1  0.0000000  1.6038667  3
    489   1043   1015   1017     1  0.0000000  1.6038667  3
    490    489   1043   1015     1  0.0000000  1.6038667  3
    491    489   1043   1015     1  0.0000000  1.6038667  3
    493    494    506    507     1  0.0000000  0.6508444  3
    493    494    506    508     1  0.0000000  0.6508444  3
    493    497    509    510     1  0.0000000  0.6508444  3
    493    497    509    511     1  0.0000000  0.6508444  3
    493    500    503    504     1  0.0000000  0.6508444  3
    493    500    503    505     1  0.0000000  0.6508444  3
    494    493    497    498     1  0.0000000  1.2552000  3
    494    493    497    499     1  0.0000000  1.2552000  3
    494    493    500    501     1  0.0000000  1.2552000  3
    494    493    500    502     1  0.0000000  1.2552000  3
    494    506    518    519     1  0.0000000  0.6508444  3
    494    506    518    520     1  0.0000000  0.6508444  3
    495    494    493    497     1  0.0000000  1.2552000  3
    495    494    493    500     1  0.0000000  1.2552000  3
    495    494    506    518     1  0.0000000  0.6508444  3
    495    494    506    507     1  0.0000000  0.6508444  3
    495    494    506    508     1  0.0000000  0.6508444  3
    496    494    493    497     1  0.0000000  1.2552000  3
    496    494    493    500     1  0.0000000  1.2552000  3
    496    494    506    518     1  0.0000000  0.6508444  3
    496    494    506    507     1  0.0000000  0.6508444  3
    496    494    506    508     1  0.0000000  0.6508444  3
    497    493    500    501     1  0.0000000  1.2552000  3
    497    493    500    502     1  0.0000000  1.2552000  3
    497    509    515    516     1  0.0000000  0.6508444  3
    497    509    515    517     1  0.0000000  0.6508444  3
    498    497    493    500     1  0.0000000  1.2552000  3
    498    497    509    515     1  0.0000000  0.6508444  3
    498    497    509    510     1  0.0000000  0.6508444  3
    498    497    509    511     1  0.0000000  0.6508444  3
    499    497    493    500     1  0.0000000  1.2552000  3
    499    497    509    515     1  0.0000000  0.6508444  3
    499    497    509    510     1  0.0000000  0.6508444  3
    499    497    509    511     1  0.0000000  0.6508444  3
    500    503    512    513     1  0.0000000  0.6508444  3
    500    503    512    514     1  0.0000000  0.6508444  3
    501    500    503    512     1  0.0000000  0.6508444  3
    501    500    503    504     1  0.0000000  0.6508444  3
    501    500    503    505     1  0.0000000  0.6508444  3
    502    500    503    512     1  0.0000000  0.6508444  3
    502    500    503    504     1  0.0000000  0.6508444  3
    502    500    503    505     1  0.0000000  0.6508444  3
    504    503    512    521     1  0.0000000  1.0460000  1
    504    503    512    521     1  0.0000000  0.0000000  3
    504    503    512    513     1  0.0000000  0.6508444  3
    504    503    512    514     1  0.0000000  0.6508444  3
    505    503    512    521     1  0.0000000  1.0460000  1
    505    503    512    521     1  0.0000000  0.0000000  3
    505    503    512    513     1  0.0000000  0.6508444  3
    505    503    512    514     1  0.0000000  0.6508444  3
    507    506    518   1101     1  0.0000000  1.0460000  1
    507    506    518   1101     1  0.0000000  0.0000000  3
    507    506    518    519     1  0.0000000  0.6508444  3
    507    506    518    520     1  0.0000000  0.6508444  3
    508    506    518   1101     1  0.0000000  1.0460000  1
    508    506    518   1101     1  0.0000000  0.0000000  3
    508    506    518    519     1  0.0000000  0.6508444  3
    508    506    518    520     1  0.0000000  0.6508444  3
    510    509    515   1072     1  0.0000000  1.0460000  1
    510    509    515   1072     1  0.0000000  0.0000000  3
    510    509    515    516     1  0.0000000  0.6508444  3
    510    509    515    517     1  0.0000000  0.6508444  3
    511    509    515   1072     1  0.0000000  1.0460000  1
    511    509    515   1072     1  0.0000000  0.0000000  3
    511    509    515    516     1  0.0000000  0.6508444  3
    511    509    515    517     1  0.0000000  0.6508444  3
    515   1072   1044   1045     1  0.0000000  1.6038667  3
    515   1072   1044   1046     1  0.0000000  1.6038667  3
    516    515   1072   1044     1  0.0000000  1.6038667  3
    517    515   1072   1044     1  0.0000000  1.6038667  3
    518   1101   1073   1074     1  0.0000000  1.6038667  3
    518   1101   1073   1075     1  0.0000000  1.6038667  3
    519    518   1101   1073     1  0.0000000  1.6038667  3
    520    518   1101   1073     1  0.0000000  1.6038667  3
    522    523    535    536     1  0.0000000  0.6508444  3
    522    523    535    537     1  0.0000000  0.6508444  3
    522    526    538    539     1  0.0000000  0.6508444  3
    522    526    538    540     1  0.0000000  0.6508444  3
    522    529    532    533     1  0.0000000  0.6508444  3
    522    529    532    534     1  0.0000000  0.6508444  3
    523    522    526    527     1  0.0000000  1.2552000  3
    523    522    526    528     1  0.0000000  1.2552000  3
    523    522    529    530     1  0.0000000  1.2552000  3
    523    522    529    531     1  0.0000000  1.2552000  3
    523    535    547    548     1  0.0000000  0.6508444  3
    523    535    547    549     1  0.0000000  0.6508444  3
    524    523    522    526     1  0.0000000  1.2552000  3
    524    523    522    529     1  0.0000000  1.2552000  3
    524    523    535    547     1  0.0000000  0.6508444  3
    524    523    535    536     1  0.0000000  0.6508444  3
    524    523    535    537     1  0.0000000  0.6508444  3
    525    523    522    526     1  0.0000000  1.2552000  3
    525    523    522    529     1  0.0000000  1.2552000  3
    525    523    535    547     1  0.0000000  0.6508444  3
    525    523    535    536     1  0.0000000  0.6508444  3
    525    523    535    537     1  0.0000000  0.6508444  3
    526    522    529    530     1  0.0000000  1.2552000  3
    526    522    529    531     1  0.0000000  1.2552000  3
    526    538    544    545     1  0.0000000  0.6508444  3
    526    538    544    546     1  0.0000000  0.6508444  3
    527    526    522    529     1  0.0000000  1.2552000  3
    527    526    538    544     1  0.0000000  0.6508444  3
    527    526    538    539     1  0.0000000  0.6508444  3
    527    526    538    540     1  0.0000000  0.6508444  3
    528    526    522    529     1  0.0000000  1.2552000  3
    528    526    538    544     1  0.0000000  0.6508444  3
    528    526    538    539     1  0.0000000  0.6508444  3
    528    526    538    540     1  0.0000000  0.6508444  3
    529    532    541    542     1  0.0000000  0.6508444  3
    529    532    541    543     1  0.0000000  0.6508444  3
    530    529    532    541     1  0.0000000  0.6508444  3
    530    529    532    533     1  0.0000000  0.6508444  3
    530    529    532    534     1  0.0000000  0.6508444  3
    531    529    532    541     1  0.0000000  0.6508444  3
    531    529    532    533     1  0.0000000  0.6508444  3
    531    529    532    534     1  0.0000000  0.6508444  3
    533    532    541    550     1  0.0000000  1.0460000  1
    533    532    541    550     1  0.0000000  0.0000000  3
    533    532    541    542     1  0.0000000  0.6508444  3
    533    532    541    543     1  0.0000000  0.6508444  3
    534    532    541    550     1  0.0000000  1.0460000  1
    534    532    541    550     1  0.0000000  0.0000000  3
    534    532    541    542     1  0.0000000  0.6508444  3
    534    532    541    543     1  0.0000000  0.6508444  3
    536    535    547   1159     1  0.0000000  1.0460000  1
    536    535    547   1159     1  0.0000000  0.0000000  3
    536    535    547    548     1  0.0000000  0.6508444  3
    536    535    547    549     1  0.0000000  0.6508444  3
    537    535    547   1159     1  0.0000000  1.0460000  1
    537    535    547   1159     1  0.0000000  0.0000000  3
    537    535    547    548     1  0.0000000  0.6508444  3
    537    535    547    549     1  0.0000000  0.6508444  3
    539    538    544   1130     1  0.0000000  1.0460000  1
    539    538    544   1130     1  0.0000000  0.0000000  3
    539    538    544    545     1  0.0000000  0.6508444  3
    539    538    544    546     1  0.0000000  0.6508444  3
    540    538    544   1130     1  0.0000000  1.0460000  1
    540    538    544   1130     1  0.0000000  0.0000000  3
    540    538    544    545     1  0.0000000  0.6508444  3
    540    538    544    546     1  0.0000000  0.6508444  3
    544   1130   1102   1103     1  0.0000000  1.6038667  3
    544   1130   1102   1104     1  0.0000000  1.6038667  3
    545    544   1130   1102     1  0.0000000  1.6038667  3
    546    544   1130   1102     1  0.0000000  1.6038667  3
    547   1159   1131   1132     1  0.0000000  1.6038667  3
    547   1159   1131   1133     1  0.0000000  1.6038667  3
    548    547   1159   1131     1  0.0000000  1.6038667  3
    549    547   1159   1131     1  0.0000000  1.6038667  3
    551    552    564    565     1  0.0000000  0.6508444  3
    551    552    564    566     1  0.0000000  0.6508444  3
    551    555    567    568     1  0.0000000  0.6508444  3
    551    555    567    569     1  0.0000000  0.6508444  3
    551    558    561    562     1  0.0000000  0.6508444  3
    551    558    561    563     1  0.0000000  0.6508444  3
    552    551    555    556     1  0.0000000  1.2552000  3
    552    551    555    557     1  0.0000000  1.2552000  3
    552    551    558    559     1  0.0000000  1.2552000  3
    552    551    558    560     1  0.0000000  1.2552000  3
    552    564    576    577     1  0.0000000  0.6508444  3
    552    564    576    578     1  0.0000000  0.6508444  3
    553    552    551    555     1  0.0000000  1.2552000  3
    553    552    551    558     1  0.0000000  1.2552000  3
    553    552    564    576     1  0.0000000  0.6508444  3
    553    552    564    565     1  0.0000000  0.6508444  3
    553    552    564    566     1  0.0000000  0.6508444  3
    554    552    551    555     1  0.0000000  1.2552000  3
    554    552    551    558     1  0.0000000  1.2552000  3
    554    552    564    576     1  0.0000000  0.6508444  3
    554    552    564    565     1  0.0000000  0.6508444  3
    554    552    564    566     1  0.0000000  0.6508444  3
    555    551    558    559     1  0.0000000  1.2552000  3
    555    551    558    560     1  0.0000000  1.2552000  3
    555    567    573    574     1  0.0000000  0.6508444  3
    555    567    573    575     1  0.0000000  0.6508444  3
    556    555    551    558     1  0.0000000  1.2552000  3
    556    555    567    573     1  0.0000000  0.6508444  3
    556    555    567    568     1  0.0000000  0.6508444  3
    556    555    567    569     1  0.0000000  0.6508444  3
    557    555    551    558     1  0.0000000  1.2552000  3
    557    555    567    573     1  0.0000000  0.6508444  3
    557    555    567    568     1  0.0000000  0.6508444  3
    557    555    567    569     1  0.0000000  0.6508444  3
    558    561    570    571     1  0.0000000  0.6508444  3
    558    561    570    572     1  0.0000000  0.6508444  3
    559    558    561    570     1  0.0000000  0.6508444  3
    559    558    561    562     1  0.0000000  0.6508444  3
    559    558    561    563     1  0.0000000  0.6508444  3
    560    558    561    570     1  0.0000000  0.6508444  3
    560    558    561    562     1  0.0000000  0.6508444  3
    560    558    561    563     1  0.0000000  0.6508444  3
    562    561    570    579     1  0.0000000  1.0460000  1
    562    561    570    579     1  0.0000000  0.0000000  3
    562    561    570    571     1  0.0000000  0.6508444  3
    562    561    570    572     1  0.0000000  0.6508444  3
    563    561    570    579     1  0.0000000  1.0460000  1
    563    561    570    579     1  0.0000000  0.0000000  3
    563    561    570    571     1  0.0000000  0.6508444  3
    563    561    570    572     1  0.0000000  0.6508444  3
    565    564    576   1217     1  0.0000000  1.0460000  1
    565    564    576   1217     1  0.0000000  0.0000000  3
    565    564    576    577     1  0.0000000  0.6508444  3
    565    564    576    578     1  0.0000000  0.6508444  3
    566    564    576   1217     1  0.0000000  1.0460000  1
    566    564    576   1217     1  0.0000000  0.0000000  3
    566    564    576    577     1  0.0000000  0.6508444  3
    566    564    576    578     1  0.0000000  0.6508444  3
    568    567    573   1188     1  0.0000000  1.0460000  1
    568    567    573   1188     1  0.0000000  0.0000000  3
    568    567    573    574     1  0.0000000  0.6508444  3
    568    567    573    575     1  0.0000000  0.6508444  3
    569    567    573   1188     1  0.0000000  1.0460000  1
    569    567    573   1188     1  0.0000000  0.0000000  3
    569    567    573    574     1  0.0000000  0.6508444  3
    569    567    573    575     1  0.0000000  0.6508444  3
    573   1188   1160   1161     1  0.0000000  1.6038667  3
    573   1188   1160   1162     1  0.0000000  1.6038667  3
    574    573   1188   1160     1  0.0000000  1.6038667  3
    575    573   1188   1160     1  0.0000000  1.6038667  3
    576   1217   1189   1190     1  0.0000000  1.6038667  3
    576   1217   1189   1191     1  0.0000000  1.6038667  3
    577    576   1217   1189     1  0.0000000  1.6038667  3
    578    576   1217   1189     1  0.0000000  1.6038667  3
    580    581    593    594     1  0.0000000  0.6508444  3
    580    581    593    595     1  0.0000000  0.6508444  3
    580    584    596    597     1  0.0000000  0.6508444  3
    580    584    596    598     1  0.0000000  0.6508444  3
    580    587    590    591     1  0.0000000  0.6508444  3
    580    587    590    592     1  0.0000000  0.6508444  3
    581    580    584    585     1  0.0000000  1.2552000  3
    581    580    584    586     1  0.0000000  1.2552000  3
    581    580    587    588     1  0.0000000  1.2552000  3
    581    580    587    589     1  0.0000000  1.2552000  3
    581    593    605    606     1  0.0000000  0.6508444  3
    581    593    605    607     1  0.0000000  0.6508444  3
    582    581    580    584     1  0.0000000  1.2552000  3
    582    581    580    587     1  0.0000000  1.2552000  3
    582    581    593    605     1  0.0000000  0.6508444  3
    582    581    593    594     1  0.0000000  0.6508444  3
    582    581    593    595     1  0.0000000  0.6508444  3
    583    581    580    584     1  0.0000000  1.2552000  3
    583    581    580    587     1  0.0000000  1.2552000  3
    583    581    593    605     1  0.0000000  0.6508444  3
    583    581    593    594     1  0.0000000  0.6508444  3
    583    581    593    595     1  0.0000000  0.6508444  3
    584    580    587    588     1  0.0000000  1.2552000  3
    584    580    587    589     1  0.0000000  1.2552000  3
    584    596    602    603     1  0.0000000  0.6508444  3
    584    596    602    604     1  0.0000000  0.6508444  3
    585    584    580    587     1  0.0000000  1.2552000  3
    585    584    596    602     1  0.0000000  0.6508444  3
    585    584    596    597     1  0.0000000  0.6508444  3
    585    584    596    598     1  0.0000000  0.6508444  3
    586    584    580    587     1  0.0000000  1.2552000  3
    586    584    596    602     1  0.0000000  0.6508444  3
    586    584    596    597     1  0.0000000  0.6508444  3
    586    584    596    598     1  0.0000000  0.6508444  3
    587    590    599    600     1  0.0000000  0.6508444  3
    587    590    599    601     1  0.0000000  0.6508444  3
    588    587    590    599     1  0.0000000  0.6508444  3
    588    587    590    591     1  0.0000000  0.6508444  3
    588    587    590    592     1  0.0000000  0.6508444  3
    589    587    590    599     1  0.0000000  0.6508444  3
    589    587    590    591     1  0.0000000  0.6508444  3
    589    587    590    592     1  0.0000000  0.6508444  3
    591    590    599    608     1  0.0000000  1.0460000  1
    591    590    599    608     1  0.0000000  0.0000000  3
    591    590    599    600     1  0.0000000  0.6508444  3
    591    590    599    601     1  0.0000000  0.6508444  3
    592    590    599    608     1  0.0000000  1.0460000  1
    592    590    599    608     1  0.0000000  0.0000000  3
    592    590    599    600     1  0.0000000  0.6508444  3
    592    590    599    601     1  0.0000000  0.6508444  3
    594    593    605   1275     1  0.0000000  1.0460000  1
    594    593    605   1275     1  0.0000000  0.0000000  3
    594    593    605    606     1  0.0000000  0.6508444  3
    594    593    605    607     1  0.0000000  0.6508444  3
    595    593    605   1275     1  0.0000000  1.0460000  1
    595    593    605   1275     1  0.0000000  0.0000000  3
    595    593    605    606     1  0.0000000  0.6508444  3
    595    593    605    607     1  0.0000000  0.6508444  3
    597    596    602   1246     1  0.0000000  1.0460000  1
    597    596    602   1246     1  0.0000000  0.0000000  3
    597    596    602    603     1  0.0000000  0.6508444  3
    597    596    602    604     1  0.0000000  0.6508444  3
    598    596    602   1246     1  0.0000000  1.0460000  1
    598    596    602   1246     1  0.0000000  0.0000000  3
    598    596    602    603     1  0.0000000  0.6508444  3
    598    596    602    604     1  0.0000000  0.6508444  3
    602   1246   1218   1219     1  0.0000000  1.6038667  3
    602   1246   1218   1220     1  0.0000000  1.6038667  3
    603    602   1246   1218     1  0.0000000  1.6038667  3
    604    602   1246   1218     1  0.0000000  1.6038667  3
    605   1275   1247   1248     1  0.0000000  1.6038667  3
    605   1275   1247   1249     1  0.0000000  1.6038667  3
    606    605   1275   1247     1  0.0000000  1.6038667  3
    607    605   1275   1247     1  0.0000000  1.6038667  3
    609    610    622    623     1  0.0000000  0.6508444  3
    609    610    622    624     1  0.0000000  0.6508444  3
    609    613    625    626     1  0.0000000  0.6508444  3
    609    613    625    627     1  0.0000000  0.6508444  3
    609    616    619    620     1  0.0000000  0.6508444  3
    609    616    619    621     1  0.0000000  0.6508444  3
    610    609    613    614     1  0.0000000  1.2552000  3
    610    609    613    615     1  0.0000000  1.2552000  3
    610    609    616    617     1  0.0000000  1.2552000  3
    610    609    616    618     1  0.0000000  1.2552000  3
    610    622    634    635     1  0.0000000  0.6508444  3
    610    622    634    636     1  0.0000000  0.6508444  3
    611    610    609    613     1  0.0000000  1.2552000  3
    611    610    609    616     1  0.0000000  1.2552000  3
    611    610    622    634     1  0.0000000  0.6508444  3
    611    610    622    623     1  0.0000000  0.6508444  3
    611    610    622    624     1  0.0000000  0.6508444  3
    612    610    609    613     1  0.0000000  1.2552000  3
    612    610    609    616     1  0.0000000  1.2552000  3
    612    610    622    634     1  0.0000000  0.6508444  3
    612    610    622    623     1  0.0000000  0.6508444  3
    612    610    622    624     1  0.0000000  0.6508444  3
    613    609    616    617     1  0.0000000  1.2552000  3
    613    609    616    618     1  0.0000000  1.2552000  3
    613    625    631    632     1  0.0000000  0.6508444  3
    613    625    631    633     1  0.0000000  0.6508444  3
    614    613    609    616     1  0.0000000  1.2552000  3
    614    613    625    631     1  0.0000000  0.6508444  3
    614    613    625    626     1  0.0000000  0.6508444  3
    614    613    625    627     1  0.0000000  0.6508444  3
    615    613    609    616     1  0.0000000  1.2552000  3
    615    613    625    631     1  0.0000000  0.6508444  3
    615    613    625    626     1  0.0000000  0.6508444  3
    615    613    625    627     1  0.0000000  0.6508444  3
    616    619    628    629     1  0.0000000  0.6508444  3
    616    619    628    630     1  0.0000000  0.6508444  3
    617    616    619    628     1  0.0000000  0.6508444  3
    617    616    619    620     1  0.0000000  0.6508444  3
    617    616    619    621     1  0.0000000  0.6508444  3
    618    616    619    628     1  0.0000000  0.6508444  3
    618    616    619    620     1  0.0000000  0.6508444  3
    618    616    619    621     1  0.0000000  0.6508444  3
    620    619    628    637     1  0.0000000  1.0460000  1
    620    619    628    637     1  0.0000000  0.0000000  3
    620    619    628    629     1  0.0000000  0.6508444  3
    620    619    628    630     1  0.0000000  0.6508444  3
    621    619    628    637     1  0.0000000  1.0460000  1
    621    619    628    637     1  0.0000000  0.0000000  3
    621    619    628    629     1  0.0000000  0.6508444  3
    621    619    628    630     1  0.0000000  0.6508444  3
    623    622    634   1333     1  0.0000000  1.0460000  1
    623    622    634   1333     1  0.0000000  0.0000000  3
    623    622    634    635     1  0.0000000  0.6508444  3
    623    622    634    636     1  0.0000000  0.6508444  3
    624    622    634   1333     1  0.0000000  1.0460000  1
    624    622    634   1333     1  0.0000000  0.0000000  3
    624    622    634    635     1  0.0000000  0.6508444  3
    624    622    634    636     1  0.0000000  0.6508444  3
    626    625    631   1304     1  0.0000000  1.0460000  1
    626    625    631   1304     1  0.0000000  0.0000000  3
    626    625    631    632     1  0.0000000  0.6508444  3
    626    625    631    633     1  0.0000000  0.6508444  3
    627    625    631   1304     1  0.0000000  1.0460000  1
    627    625    631   1304     1  0.0000000  0.0000000  3
    627    625    631    632     1  0.0000000  0.6508444  3
    627    625    631    633     1  0.0000000  0.6508444  3
    631   1304   1276   1277     1  0.0000000  1.6038667  3
    631   1304   1276   1278     1  0.0000000  1.6038667  3
    632    631   1304   1276     1  0.0000000  1.6038667  3
    633    631   1304   1276     1  0.0000000  1.6038667  3
    634   1333   1305   1306     1  0.0000000  1.6038667  3
    634   1333   1305   1307     1  0.0000000  1.6038667  3
    635    634   1333   1305     1  0.0000000  1.6038667  3
    636    634   1333   1305     1  0.0000000  1.6038667  3
    638    641    644    645     1  0.0000000  0.6508444  3
    638    641    644    646     1  0.0000000  0.6508444  3
    639    638    641    644     1  0.0000000  0.6508444  3
    639    638    641    642     1  0.0000000  0.6508444  3
    639    638    641    643     1  0.0000000  0.6508444  3
    640    638    641    644     1  0.0000000  0.6508444  3
    640    638    641    642     1  0.0000000  0.6508444  3
    640    638    641    643     1  0.0000000  0.6508444  3
    642    641    638    666     1  0.0000000  1.0460000  1
    642    641    638    666     1  0.0000000  0.0000000  3
    642    641    644    647     1  0.0000000  0.6508444  3
    642    641    644    645     1  0.0000000  0.6508444  3
    642    641    644    646     1  0.0000000  0.6508444  3
    643    641    638    666     1  0.0000000  1.0460000  1
    643    641    638    666     1  0.0000000  0.0000000  3
    643    641    644    647     1  0.0000000  0.6508444  3
    643    641    644    645     1  0.0000000  0.6508444  3
    643    641    644    646     1  0.0000000  0.6508444  3
    644    647    648    649     1  0.0000000  1.2552000  3
    644    647    648    650     1  0.0000000  1.2552000  3
    644    647    657    658     1  0.0000000  1.2552000  3
    644    647    657    659     1  0.0000000  1.2552000  3
    645    644    647    648     1  0.0000000  1.2552000  3
    645    644    647    657     1  0.0000000  1.2552000  3
    646    644    647    648     1  0.0000000  1.2552000  3
    646    644    647    657     1  0.0000000  1.2552000  3
    647    648    651    652     1  0.0000000  0.6508444  3
    647    648    651    653     1  0.0000000  0.6508444  3
    647    657    660    661     1  0.0000000  0.6508444  3
    647    657    660    662     1  0.0000000  0.6508444  3
    648    647    657    658     1  0.0000000  1.2552000  3
    648    647    657    659     1  0.0000000  1.2552000  3
    649    648    647    657     1  0.0000000  1.2552000  3
    649    648    651    654     1  0.0000000  0.6508444  3
    649    648    651    652     1  0.0000000  0.6508444  3
    649    648    651    653     1  0.0000000  0.6508444  3
    650    648    647    657     1  0.0000000  1.2552000  3
    650    648    651    654     1  0.0000000  0.6508444  3
    650    648    651    652     1  0.0000000  0.6508444  3
    650    648    651    653     1  0.0000000  0.6508444  3
    652    651    654    655     1  0.0000000  3.3472000  1
    652    651    654    655     1  0.0000000  0.0000000  2
    652    651    654    655     1  180.0000771  0.3347200  3
    652    651    654    656     1  0.0000000  3.3472000  1
    652    651    654    656     1  0.0000000  0.0000000  2
    652    651    654    656     1  180.0000771  0.3347200  3
    653    651    654    655     1  0.0000000  3.3472000  1
    653    651    654    655     1  0.0000000  0.0000000  2
    653    651    654    655     1  180.0000771  0.3347200  3
    653    651    654    656     1  0.0000000  3.3472000  1
    653    651    654    656     1  0.0000000  0.0000000  2
    653    651    654    656     1  180.0000771  0.3347200  3
    658    657    660    663     1  0.0000000  0.6508444  3
    658    657    660    661     1  0.0000000  0.6508444  3
    658    657    660    662     1  0.0000000  0.6508444  3
    659    657    660    663     1  0.0000000  0.6508444  3
    659    657    660    661     1  0.0000000  0.6508444  3
    659    657    660    662     1  0.0000000  0.6508444  3
    661    660    663    664     1  0.0000000  3.3472000  1
    661    660    663    664     1  0.0000000  0.0000000  2
    661    660    663    664     1  180.0000771  0.3347200  3
    661    660    663    665     1  0.0000000  3.3472000  1
    661    660    663    665     1  0.0000000  0.0000000  2
    661    660    663    665     1  180.0000771  0.3347200  3
    662    660    663    664     1  0.0000000  3.3472000  1
    662    660    663    664     1  0.0000000  0.0000000  2
    662    660    663    664     1  180.0000771  0.3347200  3
    662    660    663    665     1  0.0000000  3.3472000  1
    662    660    663    665     1  0.0000000  0.0000000  2
    662    660    663    665     1  180.0000771  0.3347200  3
    667    670    673    674     1  0.0000000  0.6508444  3
    667    670    673    675     1  0.0000000  0.6508444  3
    668    667    670    673     1  0.0000000  0.6508444  3
    668    667    670    671     1  0.0000000  0.6508444  3
    668    667    670    672     1  0.0000000  0.6508444  3
    669    667    670    673     1  0.0000000  0.6508444  3
    669    667    670    671     1  0.0000000  0.6508444  3
    669    667    670    672     1  0.0000000  0.6508444  3
    671    670    673    676     1  0.0000000  0.6508444  3
    671    670    673    674     1  0.0000000  0.6508444  3
    671    670    673    675     1  0.0000000  0.6508444  3
    671    670    667    695     1  0.0000000  1.0460000  1
    671    670    667    695     1  0.0000000  0.0000000  3
    672    670    673    676     1  0.0000000  0.6508444  3
    672    670    673    674     1  0.0000000  0.6508444  3
    672    670    673    675     1  0.0000000  0.6508444  3
    672    670    667    695     1  0.0000000  1.0460000  1
    672    670    667    695     1  0.0000000  0.0000000  3
    673    676    677    678     1  0.0000000  1.2552000  3
    673    676    677    679     1  0.0000000  1.2552000  3
    673    676    686    687     1  0.0000000  1.2552000  3
    673    676    686    688     1  0.0000000  1.2552000  3
    674    673    676    677     1  0.0000000  1.2552000  3
    674    673    676    686     1  0.0000000  1.2552000  3
    675    673    676    677     1  0.0000000  1.2552000  3
    675    673    676    686     1  0.0000000  1.2552000  3
    676    677    680    681     1  0.0000000  0.6508444  3
    676    677    680    682     1  0.0000000  0.6508444  3
    676    686    689    690     1  0.0000000  0.6508444  3
    676    686    689    691     1  0.0000000  0.6508444  3
    677    676    686    687     1  0.0000000  1.2552000  3
    677    676    686    688     1  0.0000000  1.2552000  3
    678    677    680    683     1  0.0000000  0.6508444  3
    678    677    680    681     1  0.0000000  0.6508444  3
    678    677    680    682     1  0.0000000  0.6508444  3
    678    677    676    686     1  0.0000000  1.2552000  3
    679    677    680    683     1  0.0000000  0.6508444  3
    679    677    680    681     1  0.0000000  0.6508444  3
    679    677    680    682     1  0.0000000  0.6508444  3
    679    677    676    686     1  0.0000000  1.2552000  3
    681    680    683    684     1  0.0000000  3.3472000  1
    681    680    683    684     1  0.0000000  0.0000000  2
    681    680    683    684     1  180.0000771  0.3347200  3
    681    680    683    685     1  0.0000000  3.3472000  1
    681    680    683    685     1  0.0000000  0.0000000  2
    681    680    683    685     1  180.0000771  0.3347200  3
    682    680    683    684     1  0.0000000  3.3472000  1
    682    680    683    684     1  0.0000000  0.0000000  2
    682    680    683    684     1  180.0000771  0.3347200  3
    682    680    683    685     1  0.0000000  3.3472000  1
    682    680    683    685     1  0.0000000  0.0000000  2
    682    680    683    685     1  180.0000771  0.3347200  3
    687    686    689    692     1  0.0000000  0.6508444  3
    687    686    689    690     1  0.0000000  0.6508444  3
    687    686    689    691     1  0.0000000  0.6508444  3
    688    686    689    692     1  0.0000000  0.6508444  3
    688    686    689    690     1  0.0000000  0.6508444  3
    688    686    689    691     1  0.0000000  0.6508444  3
    690    689    692    693     1  0.0000000  3.3472000  1
    690    689    692    693     1  0.0000000  0.0000000  2
    690    689    692    693     1  180.0000771  0.3347200  3
    690    689    692    694     1  0.0000000  3.3472000  1
    690    689    692    694     1  0.0000000  0.0000000  2
    690    689    692    694     1  180.0000771  0.3347200  3
    691    689    692    693     1  0.0000000  3.3472000  1
    691    689    692    693     1  0.0000000  0.0000000  2
    691    689    692    693     1  180.0000771  0.3347200  3
    691    689    692    694     1  0.0000000  3.3472000  1
    691    689    692    694     1  0.0000000  0.0000000  2
    691    689    692    694     1  180.0000771  0.3347200  3
    696    699    702    703     1  0.0000000  0.6508444  3
    696    699    702    704     1  0.0000000  0.6508444  3
    697    696    699    702     1  0.0000000  0.6508444  3
    697    696    699    700     1  0.0000000  0.6508444  3
    697    696    699    701     1  0.0000000  0.6508444  3
    698    696    699    702     1  0.0000000  0.6508444  3
    698    696    699    700     1  0.0000000  0.6508444  3
    698    696    699    701     1  0.0000000  0.6508444  3
    700    699    696    724     1  0.0000000  1.0460000  1
    700    699    696    724     1  0.0000000  0.0000000  3
    700    699    702    705     1  0.0000000  0.6508444  3
    700    699    702    703     1  0.0000000  0.6508444  3
    700    699    702    704     1  0.0000000  0.6508444  3
    701    699    696    724     1  0.0000000  1.0460000  1
    701    699    696    724     1  0.0000000  0.0000000  3
    701    699    702    705     1  0.0000000  0.6508444  3
    701    699    702    703     1  0.0000000  0.6508444  3
    701    699    702    704     1  0.0000000  0.6508444  3
    702    705    706    707     1  0.0000000  1.2552000  3
    702    705    706    708     1  0.0000000  1.2552000  3
    702    705    715    716     1  0.0000000  1.2552000  3
    702    705    715    717     1  0.0000000  1.2552000  3
    703    702    705    706     1  0.0000000  1.2552000  3
    703    702    705    715     1  0.0000000  1.2552000  3
    704    702    705    706     1  0.0000000  1.2552000  3
    704    702    705    715     1  0.0000000  1.2552000  3
    705    706    709    710     1  0.0000000  0.6508444  3
    705    706    709    711     1  0.0000000  0.6508444  3
    705    715    718    719     1  0.0000000  0.6508444  3
    705    715    718    720     1  0.0000000  0.6508444  3
    706    705    715    716     1  0.0000000  1.2552000  3
    706    705    715    717     1  0.0000000  1.2552000  3
    707    706    705    715     1  0.0000000  1.2552000  3
    707    706    709    712     1  0.0000000  0.6508444  3
    707    706    709    710     1  0.0000000  0.6508444  3
    707    706    709    711     1  0.0000000  0.6508444  3
    708    706    705    715     1  0.0000000  1.2552000  3
    708    706    709    712     1  0.0000000  0.6508444  3
    708    706    709    710     1  0.0000000  0.6508444  3
    708    706    709    711     1  0.0000000  0.6508444  3
    710    709    712    713     1  0.0000000  3.3472000  1
    710    709    712    713     1  0.0000000  0.0000000  2
    710    709    712    713     1  180.0000771  0.3347200  3
    710    709    712    714     1  0.0000000  3.3472000  1
    710    709    712    714     1  0.0000000  0.0000000  2
    710    709    712    714     1  180.0000771  0.3347200  3
    711    709    712    713     1  0.0000000  3.3472000  1
    711    709    712    713     1  0.0000000  0.0000000  2
    711    709    712    713     1  180.0000771  0.3347200  3
    711    709    712    714     1  0.0000000  3.3472000  1
    711    709    712    714     1  0.0000000  0.0000000  2
    711    709    712    714     1  180.0000771  0.3347200  3
    716    715    718    721     1  0.0000000  0.6508444  3
    716    715    718    719     1  0.0000000  0.6508444  3
    716    715    718    720     1  0.0000000  0.6508444  3
    717    715    718    721     1  0.0000000  0.6508444  3
    717    715    718    719     1  0.0000000  0.6508444  3
    717    715    718    720     1  0.0000000  0.6508444  3
    719    718    721    722     1  0.0000000  3.3472000  1
    719    718    721    722     1  0.0000000  0.0000000  2
    719    718    721    722     1  180.0000771  0.3347200  3
    719    718    721    723     1  0.0000000  3.3472000  1
    719    718    721    723     1  0.0000000  0.0000000  2
    719    718    721    723     1  180.0000771  0.3347200  3
    720    718    721    722     1  0.0000000  3.3472000  1
    720    718    721    722     1  0.0000000  0.0000000  2
    720    718    721    722     1  180.0000771  0.3347200  3
    720    718    721    723     1  0.0000000  3.3472000  1
    720    718    721    723     1  0.0000000  0.0000000  2
    720    718    721    723     1  180.0000771  0.3347200  3
    725    728    731    732     1  0.0000000  0.6508444  3
    725    728    731    733     1  0.0000000  0.6508444  3
    726    725    728    731     1  0.0000000  0.6508444  3
    726    725    728    729     1  0.0000000  0.6508444  3
    726    725    728    730     1  0.0000000  0.6508444  3
    727    725    728    731     1  0.0000000  0.6508444  3
    727    725    728    729     1  0.0000000  0.6508444  3
    727    725    728    730     1  0.0000000  0.6508444  3
    729    728    731    734     1  0.0000000  0.6508444  3
    729    728    731    732     1  0.0000000  0.6508444  3
    729    728    731    733     1  0.0000000  0.6508444  3
    729    728    725    753     1  0.0000000  1.0460000  1
    729    728    725    753     1  0.0000000  0.0000000  3
    730    728    731    734     1  0.0000000  0.6508444  3
    730    728    731    732     1  0.0000000  0.6508444  3
    730    728    731    733     1  0.0000000  0.6508444  3
    730    728    725    753     1  0.0000000  1.0460000  1
    730    728    725    753     1  0.0000000  0.0000000  3
    731    734    735    736     1  0.0000000  1.2552000  3
    731    734    735    737     1  0.0000000  1.2552000  3
    731    734    744    745     1  0.0000000  1.2552000  3
    731    734    744    746     1  0.0000000  1.2552000  3
    732    731    734    735     1  0.0000000  1.2552000  3
    732    731    734    744     1  0.0000000  1.2552000  3
    733    731    734    735     1  0.0000000  1.2552000  3
    733    731    734    744     1  0.0000000  1.2552000  3
    734    735    738    739     1  0.0000000  0.6508444  3
    734    735    738    740     1  0.0000000  0.6508444  3
    734    744    747    748     1  0.0000000  0.6508444  3
    734    744    747    749     1  0.0000000  0.6508444  3
    735    734    744    745     1  0.0000000  1.2552000  3
    735    734    744    746     1  0.0000000  1.2552000  3
    736    735    738    741     1  0.0000000  0.6508444  3
    736    735    738    739     1  0.0000000  0.6508444  3
    736    735    738    740     1  0.0000000  0.6508444  3
    736    735    734    744     1  0.0000000  1.2552000  3
    737    735    738    741     1  0.0000000  0.6508444  3
    737    735    738    739     1  0.0000000  0.6508444  3
    737    735    738    740     1  0.0000000  0.6508444  3
    737    735    734    744     1  0.0000000  1.2552000  3
    739    738    741    742     1  0.0000000  3.3472000  1
    739    738    741    742     1  0.0000000  0.0000000  2
    739    738    741    742     1  180.0000771  0.3347200  3
    739    738    741    743     1  0.0000000  3.3472000  1
    739    738    741    743     1  0.0000000  0.0000000  2
    739    738    741    743     1  180.0000771  0.3347200  3
    740    738    741    742     1  0.0000000  3.3472000  1
    740    738    741    742     1  0.0000000  0.0000000  2
    740    738    741    742     1  180.0000771  0.3347200  3
    740    738    741    743     1  0.0000000  3.3472000  1
    740    738    741    743     1  0.0000000  0.0000000  2
    740    738    741    743     1  180.0000771  0.3347200  3
    745    744    747    750     1  0.0000000  0.6508444  3
    745    744    747    748     1  0.0000000  0.6508444  3
    745    744    747    749     1  0.0000000  0.6508444  3
    746    744    747    750     1  0.0000000  0.6508444  3
    746    744    747    748     1  0.0000000  0.6508444  3
    746    744    747    749     1  0.0000000  0.6508444  3
    748    747    750    751     1  0.0000000  3.3472000  1
    748    747    750    751     1  0.0000000  0.0000000  2
    748    747    750    751     1  180.0000771  0.3347200  3
    748    747    750    752     1  0.0000000  3.3472000  1
    748    747    750    752     1  0.0000000  0.0000000  2
    748    747    750    752     1  180.0000771  0.3347200  3
    749    747    750    751     1  0.0000000  3.3472000  1
    749    747    750    751     1  0.0000000  0.0000000  2
    749    747    750    751     1  180.0000771  0.3347200  3
    749    747    750    752     1  0.0000000  3.3472000  1
    749    747    750    752     1  0.0000000  0.0000000  2
    749    747    750    752     1  180.0000771  0.3347200  3
    754    757    760    761     1  0.0000000  0.6508444  3
    754    757    760    762     1  0.0000000  0.6508444  3
    755    754    757    760     1  0.0000000  0.6508444  3
    755    754    757    758     1  0.0000000  0.6508444  3
    755    754    757    759     1  0.0000000  0.6508444  3
    756    754    757    760     1  0.0000000  0.6508444  3
    756    754    757    758     1  0.0000000  0.6508444  3
    756    754    757    759     1  0.0000000  0.6508444  3
    758    757    754    782     1  0.0000000  1.0460000  1
    758    757    754    782     1  0.0000000  0.0000000  3
    758    757    760    763     1  0.0000000  0.6508444  3
    758    757    760    761     1  0.0000000  0.6508444  3
    758    757    760    762     1  0.0000000  0.6508444  3
    759    757    754    782     1  0.0000000  1.0460000  1
    759    757    754    782     1  0.0000000  0.0000000  3
    759    757    760    763     1  0.0000000  0.6508444  3
    759    757    760    761     1  0.0000000  0.6508444  3
    759    757    760    762     1  0.0000000  0.6508444  3
    760    763    764    765     1  0.0000000  1.2552000  3
    760    763    764    766     1  0.0000000  1.2552000  3
    760    763    773    774     1  0.0000000  1.2552000  3
    760    763    773    775     1  0.0000000  1.2552000  3
    761    760    763    764     1  0.0000000  1.2552000  3
    761    760    763    773     1  0.0000000  1.2552000  3
    762    760    763    764     1  0.0000000  1.2552000  3
    762    760    763    773     1  0.0000000  1.2552000  3
    763    764    767    768     1  0.0000000  0.6508444  3
    763    764    767    769     1  0.0000000  0.6508444  3
    763    773    776    777     1  0.0000000  0.6508444  3
    763    773    776    778     1  0.0000000  0.6508444  3
    764    763    773    774     1  0.0000000  1.2552000  3
    764    763    773    775     1  0.0000000  1.2552000  3
    765    764    763    773     1  0.0000000  1.2552000  3
    765    764    767    770     1  0.0000000  0.6508444  3
    765    764    767    768     1  0.0000000  0.6508444  3
    765    764    767    769     1  0.0000000  0.6508444  3
    766    764    763    773     1  0.0000000  1.2552000  3
    766    764    767    770     1  0.0000000  0.6508444  3
    766    764    767    768     1  0.0000000  0.6508444  3
    766    764    767    769     1  0.0000000  0.6508444  3
    768    767    770    771     1  0.0000000  3.3472000  1
    768    767    770    771     1  0.0000000  0.0000000  2
    768    767    770    771     1  180.0000771  0.3347200  3
    768    767    770    772     1  0.0000000  3.3472000  1
    768    767    770    772     1  0.0000000  0.0000000  2
    768    767    770    772     1  180.0000771  0.3347200  3
    769    767    770    771     1  0.0000000  3.3472000  1
    769    767    770    771     1  0.0000000  0.0000000  2
    769    767    770    771     1  180.0000771  0.3347200  3
    769    767    770    772     1  0.0000000  3.3472000  1
    769    767    770    772     1  0.0000000  0.0000000  2
    769    767    770    772     1  180.0000771  0.3347200  3
    774    773    776    779     1  0.0000000  0.6508444  3
    774    773    776    777     1  0.0000000  0.6508444  3
    774    773    776    778     1  0.0000000  0.6508444  3
    775    773    776    779     1  0.0000000  0.6508444  3
    775    773    776    777     1  0.0000000  0.6508444  3
    775    773    776    778     1  0.0000000  0.6508444  3
    777    776    779    780     1  0.0000000  3.3472000  1
    777    776    779    780     1  0.0000000  0.0000000  2
    777    776    779    780     1  180.0000771  0.3347200  3
    777    776    779    781     1  0.0000000  3.3472000  1
    777    776    779    781     1  0.0000000  0.0000000  2
    777    776    779    781     1  180.0000771  0.3347200  3
    778    776    779    780     1  0.0000000  3.3472000  1
    778    776    779    780     1  0.0000000  0.0000000  2
    778    776    779    780     1  180.0000771  0.3347200  3
    778    776    779    781     1  0.0000000  3.3472000  1
    778    776    779    781     1  0.0000000  0.0000000  2
    778    776    779    781     1  180.0000771  0.3347200  3
    783    786    789    790     1  0.0000000  0.6508444  3
    783    786    789    791     1  0.0000000  0.6508444  3
    784    783    786    789     1  0.0000000  0.6508444  3
    784    783    786    787     1  0.0000000  0.6508444  3
    784    783    786    788     1  0.0000000  0.6508444  3
    785    783    786    789     1  0.0000000  0.6508444  3
    785    783    786    787     1  0.0000000  0.6508444  3
    785    783    786    788     1  0.0000000  0.6508444  3
    787    786    789    792     1  0.0000000  0.6508444  3
    787    786    789    790     1  0.0000000  0.6508444  3
    787    786    789    791     1  0.0000000  0.6508444  3
    787    786    783    811     1  0.0000000  1.0460000  1
    787    786    783    811     1  0.0000000  0.0000000  3
    788    786    789    792     1  0.0000000  0.6508444  3
    788    786    789    790     1  0.0000000  0.6508444  3
    788    786    789    791     1  0.0000000  0.6508444  3
    788    786    783    811     1  0.0000000  1.0460000  1
    788    786    783    811     1  0.0000000  0.0000000  3
    789    792    793    794     1  0.0000000  1.2552000  3
    789    792    793    795     1  0.0000000  1.2552000  3
    789    792    802    803     1  0.0000000  1.2552000  3
    789    792    802    804     1  0.0000000  1.2552000  3
    790    789    792    793     1  0.0000000  1.2552000  3
    790    789    792    802     1  0.0000000  1.2552000  3
    791    789    792    793     1  0.0000000  1.2552000  3
    791    789    792    802     1  0.0000000  1.2552000  3
    792    793    796    797     1  0.0000000  0.6508444  3
    792    793    796    798     1  0.0000000  0.6508444  3
    792    802    805    806     1  0.0000000  0.6508444  3
    792    802    805    807     1  0.0000000  0.6508444  3
    793    792    802    803     1  0.0000000  1.2552000  3
    793    792    802    804     1  0.0000000  1.2552000  3
    794    793    796    799     1  0.0000000  0.6508444  3
    794    793    796    797     1  0.0000000  0.6508444  3
    794    793    796    798     1  0.0000000  0.6508444  3
    794    793    792    802     1  0.0000000  1.2552000  3
    795    793    796    799     1  0.0000000  0.6508444  3
    795    793    796    797     1  0.0000000  0.6508444  3
    795    793    796    798     1  0.0000000  0.6508444  3
    795    793    792    802     1  0.0000000  1.2552000  3
    797    796    799    800     1  0.0000000  3.3472000  1
    797    796    799    800     1  0.0000000  0.0000000  2
    797    796    799    800     1  180.0000771  0.3347200  3
    797    796    799    801     1  0.0000000  3.3472000  1
    797    796    799    801     1  0.0000000  0.0000000  2
    797    796    799    801     1  180.0000771  0.3347200  3
    798    796    799    800     1  0.0000000  3.3472000  1
    798    796    799    800     1  0.0000000  0.0000000  2
    798    796    799    800     1  180.0000771  0.3347200  3
    798    796    799    801     1  0.0000000  3.3472000  1
    798    796    799    801     1  0.0000000  0.0000000  2
    798    796    799    801     1  180.0000771  0.3347200  3
    803    802    805    808     1  0.0000000  0.6508444  3
    803    802    805    806     1  0.0000000  0.6508444  3
    803    802    805    807     1  0.0000000  0.6508444  3
    804    802    805    808     1  0.0000000  0.6508444  3
    804    802    805    806     1  0.0000000  0.6508444  3
    804    802    805    807     1  0.0000000  0.6508444  3
    806    805    808    809     1  0.0000000  3.3472000  1
    806    805    808    809     1  0.0000000  0.0000000  2
    806    805    808    809     1  180.0000771  0.3347200  3
    806    805    808    810     1  0.0000000  3.3472000  1
    806    805    808    810     1  0.0000000  0.0000000  2
    806    805    808    810     1  180.0000771  0.3347200  3
    807    805    808    809     1  0.0000000  3.3472000  1
    807    805    808    809     1  0.0000000  0.0000000  2
    807    805    808    809     1  180.0000771  0.3347200  3
    807    805    808    810     1  0.0000000  3.3472000  1
    807    805    808    810     1  0.0000000  0.0000000  2
    807    805    808    810     1  180.0000771  0.3347200  3
    812    815    818    819     1  0.0000000  0.6508444  3
    812    815    818    820     1  0.0000000  0.6508444  3
    813    812    815    818     1  0.0000000  0.6508444  3
    813    812    815    816     1  0.0000000  0.6508444  3
    813    812    815    817     1  0.0000000  0.6508444  3
    814    812    815    818     1  0.0000000  0.6508444  3
    814    812    815    816     1  0.0000000  0.6508444  3
    814    812    815    817     1  0.0000000  0.6508444  3
    816    815    812    840     1  0.0000000  1.0460000  1
    816    815    812    840     1  0.0000000  0.0000000  3
    816    815    818    821     1  0.0000000  0.6508444  3
    816    815    818    819     1  0.0000000  0.6508444  3
    816    815    818    820     1  0.0000000  0.6508444  3
    817    815    812    840     1  0.0000000  1.0460000  1
    817    815    812    840     1  0.0000000  0.0000000  3
    817    815    818    821     1  0.0000000  0.6508444  3
    817    815    818    819     1  0.0000000  0.6508444  3
    817    815    818    820     1  0.0000000  0.6508444  3
    818    821    822    823     1  0.0000000  1.2552000  3
    818    821    822    824     1  0.0000000  1.2552000  3
    818    821    831    832     1  0.0000000  1.2552000  3
    818    821    831    833     1  0.0000000  1.2552000  3
    819    818    821    822     1  0.0000000  1.2552000  3
    819    818    821    831     1  0.0000000  1.2552000  3
    820    818    821    822     1  0.0000000  1.2552000  3
    820    818    821    831     1  0.0000000  1.2552000  3
    821    822    825    826     1  0.0000000  0.6508444  3
    821    822    825    827     1  0.0000000  0.6508444  3
    821    831    834    835     1  0.0000000  0.6508444  3
    821    831    834    836     1  0.0000000  0.6508444  3
    822    821    831    832     1  0.0000000  1.2552000  3
    822    821    831    833     1  0.0000000  1.2552000  3
    823    822    821    831     1  0.0000000  1.2552000  3
    823    822    825    828     1  0.0000000  0.6508444  3
    823    822    825    826     1  0.0000000  0.6508444  3
    823    822    825    827     1  0.0000000  0.6508444  3
    824    822    821    831     1  0.0000000  1.2552000  3
    824    822    825    828     1  0.0000000  0.6508444  3
    824    822    825    826     1  0.0000000  0.6508444  3
    824    822    825    827     1  0.0000000  0.6508444  3
    826    825    828    829     1  0.0000000  3.3472000  1
    826    825    828    829     1  0.0000000  0.0000000  2
    826    825    828    829     1  180.0000771  0.3347200  3
    826    825    828    830     1  0.0000000  3.3472000  1
    826    825    828    830     1  0.0000000  0.0000000  2
    826    825    828    830     1  180.0000771  0.3347200  3
    827    825    828    829     1  0.0000000  3.3472000  1
    827    825    828    829     1  0.0000000  0.0000000  2
    827    825    828    829     1  180.0000771  0.3347200  3
    827    825    828    830     1  0.0000000  3.3472000  1
    827    825    828    830     1  0.0000000  0.0000000  2
    827    825    828    830     1  180.0000771  0.3347200  3
    832    831    834    837     1  0.0000000  0.6508444  3
    832    831    834    835     1  0.0000000  0.6508444  3
    832    831    834    836     1  0.0000000  0.6508444  3
    833    831    834    837     1  0.0000000  0.6508444  3
    833    831    834    835     1  0.0000000  0.6508444  3
    833    831    834    836     1  0.0000000  0.6508444  3
    835    834    837    838     1  0.0000000  3.3472000  1
    835    834    837    838     1  0.0000000  0.0000000  2
    835    834    837    838     1  180.0000771  0.3347200  3
    835    834    837    839     1  0.0000000  3.3472000  1
    835    834    837    839     1  0.0000000  0.0000000  2
    835    834    837    839     1  180.0000771  0.3347200  3
    836    834    837    838     1  0.0000000  3.3472000  1
    836    834    837    838     1  0.0000000  0.0000000  2
    836    834    837    838     1  180.0000771  0.3347200  3
    836    834    837    839     1  0.0000000  3.3472000  1
    836    834    837    839     1  0.0000000  0.0000000  2
    836    834    837    839     1  180.0000771  0.3347200  3
    841    844    847    848     1  0.0000000  0.6508444  3
    841    844    847    849     1  0.0000000  0.6508444  3
    842    841    844    847     1  0.0000000  0.6508444  3
    842    841    844    845     1  0.0000000  0.6508444  3
    842    841    844    846     1  0.0000000  0.6508444  3
    843    841    844    847     1  0.0000000  0.6508444  3
    843    841    844    845     1  0.0000000  0.6508444  3
    843    841    844    846     1  0.0000000  0.6508444  3
    845    844    847    850     1  0.0000000  0.6508444  3
    845    844    847    848     1  0.0000000  0.6508444  3
    845    844    847    849     1  0.0000000  0.6508444  3
    845    844    841    869     1  0.0000000  1.0460000  1
    845    844    841    869     1  0.0000000  0.0000000  3
    846    844    847    850     1  0.0000000  0.6508444  3
    846    844    847    848     1  0.0000000  0.6508444  3
    846    844    847    849     1  0.0000000  0.6508444  3
    846    844    841    869     1  0.0000000  1.0460000  1
    846    844    841    869     1  0.0000000  0.0000000  3
    847    850    851    852     1  0.0000000  1.2552000  3
    847    850    851    853     1  0.0000000  1.2552000  3
    847    850    860    861     1  0.0000000  1.2552000  3
    847    850    860    862     1  0.0000000  1.2552000  3
    848    847    850    851     1  0.0000000  1.2552000  3
    848    847    850    860     1  0.0000000  1.2552000  3
    849    847    850    851     1  0.0000000  1.2552000  3
    849    847    850    860     1  0.0000000  1.2552000  3
    850    851    854    855     1  0.0000000  0.6508444  3
    850    851    854    856     1  0.0000000  0.6508444  3
    850    860    863    864     1  0.0000000  0.6508444  3
    850    860    863    865     1  0.0000000  0.6508444  3
    851    850    860    861     1  0.0000000  1.2552000  3
    851    850    860    862     1  0.0000000  1.2552000  3
    852    851    854    857     1  0.0000000  0.6508444  3
    852    851    854    855     1  0.0000000  0.6508444  3
    852    851    854    856     1  0.0000000  0.6508444  3
    852    851    850    860     1  0.0000000  1.2552000  3
    853    851    854    857     1  0.0000000  0.6508444  3
    853    851    854    855     1  0.0000000  0.6508444  3
    853    851    854    856     1  0.0000000  0.6508444  3
    853    851    850    860     1  0.0000000  1.2552000  3
    855    854    857    858     1  0.0000000  3.3472000  1
    855    854    857    858     1  0.0000000  0.0000000  2
    855    854    857    858     1  180.0000771  0.3347200  3
    855    854    857    859     1  0.0000000  3.3472000  1
    855    854    857    859     1  0.0000000  0.0000000  2
    855    854    857    859     1  180.0000771  0.3347200  3
    856    854    857    858     1  0.0000000  3.3472000  1
    856    854    857    858     1  0.0000000  0.0000000  2
    856    854    857    858     1  180.0000771  0.3347200  3
    856    854    857    859     1  0.0000000  3.3472000  1
    856    854    857    859     1  0.0000000  0.0000000  2
    856    854    857    859     1  180.0000771  0.3347200  3
    861    860    863    866     1  0.0000000  0.6508444  3
    861    860    863    864     1  0.0000000  0.6508444  3
    861    860    863    865     1  0.0000000  0.6508444  3
    862    860    863    866     1  0.0000000  0.6508444  3
    862    860    863    864     1  0.0000000  0.6508444  3
    862    860    863    865     1  0.0000000  0.6508444  3
    864    863    866    867     1  0.0000000  3.3472000  1
    864    863    866    867     1  0.0000000  0.0000000  2
    864    863    866    867     1  180.0000771  0.3347200  3
    864    863    866    868     1  0.0000000  3.3472000  1
    864    863    866    868     1  0.0000000  0.0000000  2
    864    863    866    868     1  180.0000771  0.3347200  3
    865    863    866    867     1  0.0000000  3.3472000  1
    865    863    866    867     1  0.0000000  0.0000000  2
    865    863    866    867     1  180.0000771  0.3347200  3
    865    863    866    868     1  0.0000000  3.3472000  1
    865    863    866    868     1  0.0000000  0.0000000  2
    865    863    866    868     1  180.0000771  0.3347200  3
    870    873    876    877     1  0.0000000  0.6508444  3
    870    873    876    878     1  0.0000000  0.6508444  3
    871    870    873    876     1  0.0000000  0.6508444  3
    871    870    873    874     1  0.0000000  0.6508444  3
    871    870    873    875     1  0.0000000  0.6508444  3
    872    870    873    876     1  0.0000000  0.6508444  3
    872    870    873    874     1  0.0000000  0.6508444  3
    872    870    873    875     1  0.0000000  0.6508444  3
    874    873    870    898     1  0.0000000  1.0460000  1
    874    873    870    898     1  0.0000000  0.0000000  3
    874    873    876    879     1  0.0000000  0.6508444  3
    874    873    876    877     1  0.0000000  0.6508444  3
    874    873    876    878     1  0.0000000  0.6508444  3
    875    873    870    898     1  0.0000000  1.0460000  1
    875    873    870    898     1  0.0000000  0.0000000  3
    875    873    876    879     1  0.0000000  0.6508444  3
    875    873    876    877     1  0.0000000  0.6508444  3
    875    873    876    878     1  0.0000000  0.6508444  3
    876    879    880    881     1  0.0000000  1.2552000  3
    876    879    880    882     1  0.0000000  1.2552000  3
    876    879    889    890     1  0.0000000  1.2552000  3
    876    879    889    891     1  0.0000000  1.2552000  3
    877    876    879    880     1  0.0000000  1.2552000  3
    877    876    879    889     1  0.0000000  1.2552000  3
    878    876    879    880     1  0.0000000  1.2552000  3
    878    876    879    889     1  0.0000000  1.2552000  3
    879    880    883    884     1  0.0000000  0.6508444  3
    879    880    883    885     1  0.0000000  0.6508444  3
    879    889    892    893     1  0.0000000  0.6508444  3
    879    889    892    894     1  0.0000000  0.6508444  3
    880    879    889    890     1  0.0000000  1.2552000  3
    880    879    889    891     1  0.0000000  1.2552000  3
    881    880    879    889     1  0.0000000  1.2552000  3
    881    880    883    886     1  0.0000000  0.6508444  3
    881    880    883    884     1  0.0000000  0.6508444  3
    881    880    883    885     1  0.0000000  0.6508444  3
    882    880    879    889     1  0.0000000  1.2552000  3
    882    880    883    886     1  0.0000000  0.6508444  3
    882    880    883    884     1  0.0000000  0.6508444  3
    882    880    883    885     1  0.0000000  0.6508444  3
    884    883    886    887     1  0.0000000  3.3472000  1
    884    883    886    887     1  0.0000000  0.0000000  2
    884    883    886    887     1  180.0000771  0.3347200  3
    884    883    886    888     1  0.0000000  3.3472000  1
    884    883    886    888     1  0.0000000  0.0000000  2
    884    883    886    888     1  180.0000771  0.3347200  3
    885    883    886    887     1  0.0000000  3.3472000  1
    885    883    886    887     1  0.0000000  0.0000000  2
    885    883    886    887     1  180.0000771  0.3347200  3
    885    883    886    888     1  0.0000000  3.3472000  1
    885    883    886    888     1  0.0000000  0.0000000  2
    885    883    886    888     1  180.0000771  0.3347200  3
    890    889    892    895     1  0.0000000  0.6508444  3
    890    889    892    893     1  0.0000000  0.6508444  3
    890    889    892    894     1  0.0000000  0.6508444  3
    891    889    892    895     1  0.0000000  0.6508444  3
    891    889    892    893     1  0.0000000  0.6508444  3
    891    889    892    894     1  0.0000000  0.6508444  3
    893    892    895    896     1  0.0000000  3.3472000  1
    893    892    895    896     1  0.0000000  0.0000000  2
    893    892    895    896     1  180.0000771  0.3347200  3
    893    892    895    897     1  0.0000000  3.3472000  1
    893    892    895    897     1  0.0000000  0.0000000  2
    893    892    895    897     1  180.0000771  0.3347200  3
    894    892    895    896     1  0.0000000  3.3472000  1
    894    892    895    896     1  0.0000000  0.0000000  2
    894    892    895    896     1  180.0000771  0.3347200  3
    894    892    895    897     1  0.0000000  3.3472000  1
    894    892    895    897     1  0.0000000  0.0000000  2
    894    892    895    897     1  180.0000771  0.3347200  3
    899    902    905    906     1  0.0000000  0.6508444  3
    899    902    905    907     1  0.0000000  0.6508444  3
    900    899    902    905     1  0.0000000  0.6508444  3
    900    899    902    903     1  0.0000000  0.6508444  3
    900    899    902    904     1  0.0000000  0.6508444  3
    901    899    902    905     1  0.0000000  0.6508444  3
    901    899    902    903     1  0.0000000  0.6508444  3
    901    899    902    904     1  0.0000000  0.6508444  3
    903    902    905    908     1  0.0000000  0.6508444  3
    903    902    905    906     1  0.0000000  0.6508444  3
    903    902    905    907     1  0.0000000  0.6508444  3
    903    902    899    927     1  0.0000000  1.0460000  1
    903    902    899    927     1  0.0000000  0.0000000  3
    904    902    905    908     1  0.0000000  0.6508444  3
    904    902    905    906     1  0.0000000  0.6508444  3
    904    902    905    907     1  0.0000000  0.6508444  3
    904    902    899    927     1  0.0000000  1.0460000  1
    904    902    899    927     1  0.0000000  0.0000000  3
    905    908    909    910     1  0.0000000  1.2552000  3
    905    908    909    911     1  0.0000000  1.2552000  3
    905    908    918    919     1  0.0000000  1.2552000  3
    905    908    918    920     1  0.0000000  1.2552000  3
    906    905    908    909     1  0.0000000  1.2552000  3
    906    905    908    918     1  0.0000000  1.2552000  3
    907    905    908    909     1  0.0000000  1.2552000  3
    907    905    908    918     1  0.0000000  1.2552000  3
    908    909    912    913     1  0.0000000  0.6508444  3
    908    909    912    914     1  0.0000000  0.6508444  3
    908    918    921    922     1  0.0000000  0.6508444  3
    908    918    921    923     1  0.0000000  0.6508444  3
    909    908    918    919     1  0.0000000  1.2552000  3
    909    908    918    920     1  0.0000000  1.2552000  3
    910    909    912    915     1  0.0000000  0.6508444  3
    910    909    912    913     1  0.0000000  0.6508444  3
    910    909    912    914     1  0.0000000  0.6508444  3
    910    909    908    918     1  0.0000000  1.2552000  3
    911    909    912    915     1  0.0000000  0.6508444  3
    911    909    912    913     1  0.0000000  0.6508444  3
    911    909    912    914     1  0.0000000  0.6508444  3
    911    909    908    918     1  0.0000000  1.2552000  3
    913    912    915    916     1  0.0000000  3.3472000  1
    913    912    915    916     1  0.0000000  0.0000000  2
    913    912    915    916     1  180.0000771  0.3347200  3
    913    912    915    917     1  0.0000000  3.3472000  1
    913    912    915    917     1  0.0000000  0.0000000  2
    913    912    915    917     1  180.0000771  0.3347200  3
    914    912    915    916     1  0.0000000  3.3472000  1
    914    912    915    916     1  0.0000000  0.0000000  2
    914    912    915    916     1  180.0000771  0.3347200  3
    914    912    915    917     1  0.0000000  3.3472000  1
    914    912    915    917     1  0.0000000  0.0000000  2
    914    912    915    917     1  180.0000771  0.3347200  3
    919    918    921    924     1  0.0000000  0.6508444  3
    919    918    921    922     1  0.0000000  0.6508444  3
    919    918    921    923     1  0.0000000  0.6508444  3
    920    918    921    924     1  0.0000000  0.6508444  3
    920    918    921    922     1  0.0000000  0.6508444  3
    920    918    921    923     1  0.0000000  0.6508444  3
    922    921    924    925     1  0.0000000  3.3472000  1
    922    921    924    925     1  0.0000000  0.0000000  2
    922    921    924    925     1  180.0000771  0.3347200  3
    922    921    924    926     1  0.0000000  3.3472000  1
    922    921    924    926     1  0.0000000  0.0000000  2
    922    921    924    926     1  180.0000771  0.3347200  3
    923    921    924    925     1  0.0000000  3.3472000  1
    923    921    924    925     1  0.0000000  0.0000000  2
    923    921    924    925     1  180.0000771  0.3347200  3
    923    921    924    926     1  0.0000000  3.3472000  1
    923    921    924    926     1  0.0000000  0.0000000  2
    923    921    924    926     1  180.0000771  0.3347200  3
    928    931    934    935     1  0.0000000  0.6508444  3
    928    931    934    936     1  0.0000000  0.6508444  3
    929    928    931    934     1  0.0000000  0.6508444  3
    929    928    931    932     1  0.0000000  0.6508444  3
    929    928    931    933     1  0.0000000  0.6508444  3
    930    928    931    934     1  0.0000000  0.6508444  3
    930    928    931    932     1  0.0000000  0.6508444  3
    930    928    931    933     1  0.0000000  0.6508444  3
    932    931    928    956     1  0.0000000  1.0460000  1
    932    931    928    956     1  0.0000000  0.0000000  3
    932    931    934    937     1  0.0000000  0.6508444  3
    932    931    934    935     1  0.0000000  0.6508444  3
    932    931    934    936     1  0.0000000  0.6508444  3
    933    931    928    956     1  0.0000000  1.0460000  1
    933    931    928    956     1  0.0000000  0.0000000  3
    933    931    934    937     1  0.0000000  0.6508444  3
    933    931    934    935     1  0.0000000  0.6508444  3
    933    931    934    936     1  0.0000000  0.6508444  3
    934    937    938    939     1  0.0000000  1.2552000  3
    934    937    938    940     1  0.0000000  1.2552000  3
    934    937    947    948     1  0.0000000  1.2552000  3
    934    937    947    949     1  0.0000000  1.2552000  3
    935    934    937    938     1  0.0000000  1.2552000  3
    935    934    937    947     1  0.0000000  1.2552000  3
    936    934    937    938     1  0.0000000  1.2552000  3
    936    934    937    947     1  0.0000000  1.2552000  3
    937    938    941    942     1  0.0000000  0.6508444  3
    937    938    941    943     1  0.0000000  0.6508444  3
    937    947    950    951     1  0.0000000  0.6508444  3
    937    947    950    952     1  0.0000000  0.6508444  3
    938    937    947    948     1  0.0000000  1.2552000  3
    938    937    947    949     1  0.0000000  1.2552000  3
    939    938    937    947     1  0.0000000  1.2552000  3
    939    938    941    944     1  0.0000000  0.6508444  3
    939    938    941    942     1  0.0000000  0.6508444  3
    939    938    941    943     1  0.0000000  0.6508444  3
    940    938    937    947     1  0.0000000  1.2552000  3
    940    938    941    944     1  0.0000000  0.6508444  3
    940    938    941    942     1  0.0000000  0.6508444  3
    940    938    941    943     1  0.0000000  0.6508444  3
    942    941    944    945     1  0.0000000  3.3472000  1
    942    941    944    945     1  0.0000000  0.0000000  2
    942    941    944    945     1  180.0000771  0.3347200  3
    942    941    944    946     1  0.0000000  3.3472000  1
    942    941    944    946     1  0.0000000  0.0000000  2
    942    941    944    946     1  180.0000771  0.3347200  3
    943    941    944    945     1  0.0000000  3.3472000  1
    943    941    944    945     1  0.0000000  0.0000000  2
    943    941    944    945     1  180.0000771  0.3347200  3
    943    941    944    946     1  0.0000000  3.3472000  1
    943    941    944    946     1  0.0000000  0.0000000  2
    943    941    944    946     1  180.0000771  0.3347200  3
    948    947    950    953     1  0.0000000  0.6508444  3
    948    947    950    951     1  0.0000000  0.6508444  3
    948    947    950    952     1  0.0000000  0.6508444  3
    949    947    950    953     1  0.0000000  0.6508444  3
    949    947    950    951     1  0.0000000  0.6508444  3
    949    947    950    952     1  0.0000000  0.6508444  3
    951    950    953    954     1  0.0000000  3.3472000  1
    951    950    953    954     1  0.0000000  0.0000000  2
    951    950    953    954     1  180.0000771  0.3347200  3
    951    950    953    955     1  0.0000000  3.3472000  1
    951    950    953    955     1  0.0000000  0.0000000  2
    951    950    953    955     1  180.0000771  0.3347200  3
    952    950    953    954     1  0.0000000  3.3472000  1
    952    950    953    954     1  0.0000000  0.0000000  2
    952    950    953    954     1  180.0000771  0.3347200  3
    952    950    953    955     1  0.0000000  3.3472000  1
    952    950    953    955     1  0.0000000  0.0000000  2
    952    950    953    955     1  180.0000771  0.3347200  3
    957    960    963    964     1  0.0000000  0.6508444  3
    957    960    963    965     1  0.0000000  0.6508444  3
    958    957    960    963     1  0.0000000  0.6508444  3
    958    957    960    961     1  0.0000000  0.6508444  3
    958    957    960    962     1  0.0000000  0.6508444  3
    959    957    960    963     1  0.0000000  0.6508444  3
    959    957    960    961     1  0.0000000  0.6508444  3
    959    957    960    962     1  0.0000000  0.6508444  3
    961    960    963    966     1  0.0000000  0.6508444  3
    961    960    963    964     1  0.0000000  0.6508444  3
    961    960    963    965     1  0.0000000  0.6508444  3
    961    960    957    985     1  0.0000000  1.0460000  1
    961    960    957    985     1  0.0000000  0.0000000  3
    962    960    963    966     1  0.0000000  0.6508444  3
    962    960    963    964     1  0.0000000  0.6508444  3
    962    960    963    965     1  0.0000000  0.6508444  3
    962    960    957    985     1  0.0000000  1.0460000  1
    962    960    957    985     1  0.0000000  0.0000000  3
    963    966    967    968     1  0.0000000  1.2552000  3
    963    966    967    969     1  0.0000000  1.2552000  3
    963    966    976    977     1  0.0000000  1.2552000  3
    963    966    976    978     1  0.0000000  1.2552000  3
    964    963    966    967     1  0.0000000  1.2552000  3
    964    963    966    976     1  0.0000000  1.2552000  3
    965    963    966    967     1  0.0000000  1.2552000  3
    965    963    966    976     1  0.0000000  1.2552000  3
    966    967    970    971     1  0.0000000  0.6508444  3
    966    967    970    972     1  0.0000000  0.6508444  3
    966    976    979    980     1  0.0000000  0.6508444  3
    966    976    979    981     1  0.0000000  0.6508444  3
    967    966    976    977     1  0.0000000  1.2552000  3
    967    966    976    978     1  0.0000000  1.2552000  3
    968    967    970    973     1  0.0000000  0.6508444  3
    968    967    970    971     1  0.0000000  0.6508444  3
    968    967    970    972     1  0.0000000  0.6508444  3
    968    967    966    976     1  0.0000000  1.2552000  3
    969    967    970    973     1  0.0000000  0.6508444  3
    969    967    970    971     1  0.0000000  0.6508444  3
    969    967    970    972     1  0.0000000  0.6508444  3
    969    967    966    976     1  0.0000000  1.2552000  3
    971    970    973    974     1  0.0000000  3.3472000  1
    971    970    973    974     1  0.0000000  0.0000000  2
    971    970    973    974     1  180.0000771  0.3347200  3
    971    970    973    975     1  0.0000000  3.3472000  1
    971    970    973    975     1  0.0000000  0.0000000  2
    971    970    973    975     1  180.0000771  0.3347200  3
    972    970    973    974     1  0.0000000  3.3472000  1
    972    970    973    974     1  0.0000000  0.0000000  2
    972    970    973    974     1  180.0000771  0.3347200  3
    972    970    973    975     1  0.0000000  3.3472000  1
    972    970    973    975     1  0.0000000  0.0000000  2
    972    970    973    975     1  180.0000771  0.3347200  3
    977    976    979    982     1  0.0000000  0.6508444  3
    977    976    979    980     1  0.0000000  0.6508444  3
    977    976    979    981     1  0.0000000  0.6508444  3
    978    976    979    982     1  0.0000000  0.6508444  3
    978    976    979    980     1  0.0000000  0.6508444  3
    978    976    979    981     1  0.0000000  0.6508444  3
    980    979    982    983     1  0.0000000  3.3472000  1
    980    979    982    983     1  0.0000000  0.0000000  2
    980    979    982    983     1  180.0000771  0.3347200  3
    980    979    982    984     1  0.0000000  3.3472000  1
    980    979    982    984     1  0.0000000  0.0000000  2
    980    979    982    984     1  180.0000771  0.3347200  3
    981    979    982    983     1  0.0000000  3.3472000  1
    981    979    982    983     1  0.0000000  0.0000000  2
    981    979    982    983     1  180.0000771  0.3347200  3
    981    979    982    984     1  0.0000000  3.3472000  1
    981    979    982    984     1  0.0000000  0.0000000  2
    981    979    982    984     1  180.0000771  0.3347200  3
    986    989    992    993     1  0.0000000  0.6508444  3
    986    989    992    994     1  0.0000000  0.6508444  3
    987    986    989    992     1  0.0000000  0.6508444  3
    987    986    989    990     1  0.0000000  0.6508444  3
    987    986    989    991     1  0.0000000  0.6508444  3
    988    986    989    992     1  0.0000000  0.6508444  3
    988    986    989    990     1  0.0000000  0.6508444  3
    988    986    989    991     1  0.0000000  0.6508444  3
    990    989    986   1014     1  0.0000000  1.0460000  1
    990    989    986   1014     1  0.0000000  0.0000000  3
    990    989    992    995     1  0.0000000  0.6508444  3
    990    989    992    993     1  0.0000000  0.6508444  3
    990    989    992    994     1  0.0000000  0.6508444  3
    991    989    986   1014     1  0.0000000  1.0460000  1
    991    989    986   1014     1  0.0000000  0.0000000  3
    991    989    992    995     1  0.0000000  0.6508444  3
    991    989    992    993     1  0.0000000  0.6508444  3
    991    989    992    994     1  0.0000000  0.6508444  3
    992    995    996    997     1  0.0000000  1.2552000  3
    992    995    996    998     1  0.0000000  1.2552000  3
    992    995   1005   1006     1  0.0000000  1.2552000  3
    992    995   1005   1007     1  0.0000000  1.2552000  3
    993    992    995    996     1  0.0000000  1.2552000  3
    993    992    995   1005     1  0.0000000  1.2552000  3
    994    992    995    996     1  0.0000000  1.2552000  3
    994    992    995   1005     1  0.0000000  1.2552000  3
    995    996    999   1000     1  0.0000000  0.6508444  3
    995    996    999   1001     1  0.0000000  0.6508444  3
    995   1005   1008   1009     1  0.0000000  0.6508444  3
    995   1005   1008   1010     1  0.0000000  0.6508444  3
    996    995   1005   1006     1  0.0000000  1.2552000  3
    996    995   1005   1007     1  0.0000000  1.2552000  3
    997    996    995   1005     1  0.0000000  1.2552000  3
    997    996    999   1002     1  0.0000000  0.6508444  3
    997    996    999   1000     1  0.0000000  0.6508444  3
    997    996    999   1001     1  0.0000000  0.6508444  3
    998    996    995   1005     1  0.0000000  1.2552000  3
    998    996    999   1002     1  0.0000000  0.6508444  3
    998    996    999   1000     1  0.0000000  0.6508444  3
    998    996    999   1001     1  0.0000000  0.6508444  3
   1000    999   1002   1003     1  0.0000000  3.3472000  1
   1000    999   1002   1003     1  0.0000000  0.0000000  2
   1000    999   1002   1003     1  180.0000771  0.3347200  3
   1000    999   1002   1004     1  0.0000000  3.3472000  1
   1000    999   1002   1004     1  0.0000000  0.0000000  2
   1000    999   1002   1004     1  180.0000771  0.3347200  3
   1001    999   1002   1003     1  0.0000000  3.3472000  1
   1001    999   1002   1003     1  0.0000000  0.0000000  2
   1001    999   1002   1003     1  180.0000771  0.3347200  3
   1001    999   1002   1004     1  0.0000000  3.3472000  1
   1001    999   1002   1004     1  0.0000000  0.0000000  2
   1001    999   1002   1004     1  180.0000771  0.3347200  3
   1006   1005   1008   1011     1  0.0000000  0.6508444  3
   1006   1005   1008   1009     1  0.0000000  0.6508444  3
   1006   1005   1008   1010     1  0.0000000  0.6508444  3
   1007   1005   1008   1011     1  0.0000000  0.6508444  3
   1007   1005   1008   1009     1  0.0000000  0.6508444  3
   1007   1005   1008   1010     1  0.0000000  0.6508444  3
   1009   1008   1011   1012     1  0.0000000  3.3472000  1
   1009   1008   1011   1012     1  0.0000000  0.0000000  2
   1009   1008   1011   1012     1  180.0000771  0.3347200  3
   1009   1008   1011   1013     1  0.0000000  3.3472000  1
   1009   1008   1011   1013     1  0.0000000  0.0000000  2
   1009   1008   1011   1013     1  180.0000771  0.3347200  3
   1010   1008   1011   1012     1  0.0000000  3.3472000  1
   1010   1008   1011   1012     1  0.0000000  0.0000000  2
   1010   1008   1011   1012     1  180.0000771  0.3347200  3
   1010   1008   1011   1013     1  0.0000000  3.3472000  1
   1010   1008   1011   1013     1  0.0000000  0.0000000  2
   1010   1008   1011   1013     1  180.0000771  0.3347200  3
   1015   1018   1021   1022     1  0.0000000  0.6508444  3
   1015   1018   1021   1023     1  0.0000000  0.6508444  3
   1016   1015   1018   1021     1  0.0000000  0.6508444  3
   1016   1015   1018   1019     1  0.0000000  0.6508444  3
   1016   1015   1018   1020     1  0.0000000  0.6508444  3
   1017   1015   1018   1021     1  0.0000000  0.6508444  3
   1017   1015   1018   1019     1  0.0000000  0.6508444  3
   1017   1015   1018   1020     1  0.0000000  0.6508444  3
   1019   1018   1021   1024     1  0.0000000  0.6508444  3
   1019   1018   1021   1022     1  0.0000000  0.6508444  3
   1019   1018   1021   1023     1  0.0000000  0.6508444  3
   1019   1018   1015   1043     1  0.0000000  1.0460000  1
   1019   1018   1015   1043     1  0.0000000  0.0000000  3
   1020   1018   1021   1024     1  0.0000000  0.6508444  3
   1020   1018   1021   1022     1  0.0000000  0.6508444  3
   1020   1018   1021   1023     1  0.0000000  0.6508444  3
   1020   1018   1015   1043     1  0.0000000  1.0460000  1
   1020   1018   1015   1043     1  0.0000000  0.0000000  3
   1021   1024   1025   1026     1  0.0000000  1.2552000  3
   1021   1024   1025   1027     1  0.0000000  1.2552000  3
   1021   1024   1034   1035     1  0.0000000  1.2552000  3
   1021   1024   1034   1036     1  0.0000000  1.2552000  3
   1022   1021   1024   1025     1  0.0000000  1.2552000  3
   1022   1021   1024   1034     1  0.0000000  1.2552000  3
   1023   1021   1024   1025     1  0.0000000  1.2552000  3
   1023   1021   1024   1034     1  0.0000000  1.2552000  3
   1024   1025   1028   1029     1  0.0000000  0.6508444  3
   1024   1025   1028   1030     1  0.0000000  0.6508444  3
   1024   1034   1037   1038     1  0.0000000  0.6508444  3
   1024   1034   1037   1039     1  0.0000000  0.6508444  3
   1025   1024   1034   1035     1  0.0000000  1.2552000  3
   1025   1024   1034   1036     1  0.0000000  1.2552000  3
   1026   1025   1028   1031     1  0.0000000  0.6508444  3
   1026   1025   1028   1029     1  0.0000000  0.6508444  3
   1026   1025   1028   1030     1  0.0000000  0.6508444  3
   1026   1025   1024   1034     1  0.0000000  1.2552000  3
   1027   1025   1028   1031     1  0.0000000  0.6508444  3
   1027   1025   1028   1029     1  0.0000000  0.6508444  3
   1027   1025   1028   1030     1  0.0000000  0.6508444  3
   1027   1025   1024   1034     1  0.0000000  1.2552000  3
   1029   1028   1031   1032     1  0.0000000  3.3472000  1
   1029   1028   1031   1032     1  0.0000000  0.0000000  2
   1029   1028   1031   1032     1  180.0000771  0.3347200  3
   1029   1028   1031   1033     1  0.0000000  3.3472000  1
   1029   1028   1031   1033     1  0.0000000  0.0000000  2
   1029   1028   1031   1033     1  180.0000771  0.3347200  3
   1030   1028   1031   1032     1  0.0000000  3.3472000  1
   1030   1028   1031   1032     1  0.0000000  0.0000000  2
   1030   1028   1031   1032     1  180.0000771  0.3347200  3
   1030   1028   1031   1033     1  0.0000000  3.3472000  1
   1030   1028   1031   1033     1  0.0000000  0.0000000  2
   1030   1028   1031   1033     1  180.0000771  0.3347200  3
   1035   1034   1037   1040     1  0.0000000  0.6508444  3
   1035   1034   1037   1038     1  0.0000000  0.6508444  3
   1035   1034   1037   1039     1  0.0000000  0.6508444  3
   1036   1034   1037   1040     1  0.0000000  0.6508444  3
   1036   1034   1037   1038     1  0.0000000  0.6508444  3
   1036   1034   1037   1039     1  0.0000000  0.6508444  3
   1038   1037   1040   1041     1  0.0000000  3.3472000  1
   1038   1037   1040   1041     1  0.0000000  0.0000000  2
   1038   1037   1040   1041     1  180.0000771  0.3347200  3
   1038   1037   1040   1042     1  0.0000000  3.3472000  1
   1038   1037   1040   1042     1  0.0000000  0.0000000  2
   1038   1037   1040   1042     1  180.0000771  0.3347200  3
   1039   1037   1040   1041     1  0.0000000  3.3472000  1
   1039   1037   1040   1041     1  0.0000000  0.0000000  2
   1039   1037   1040   1041     1  180.0000771  0.3347200  3
   1039   1037   1040   1042     1  0.0000000  3.3472000  1
   1039   1037   1040   1042     1  0.0000000  0.0000000  2
   1039   1037   1040   1042     1  180.0000771  0.3347200  3
   1044   1047   1050   1051     1  0.0000000  0.6508444  3
   1044   1047   1050   1052     1  0.0000000  0.6508444  3
   1045   1044   1047   1050     1  0.0000000  0.6508444  3
   1045   1044   1047   1048     1  0.0000000  0.6508444  3
   1045   1044   1047   1049     1  0.0000000  0.6508444  3
   1046   1044   1047   1050     1  0.0000000  0.6508444  3
   1046   1044   1047   1048     1  0.0000000  0.6508444  3
   1046   1044   1047   1049     1  0.0000000  0.6508444  3
   1048   1047   1044   1072     1  0.0000000  1.0460000  1
   1048   1047   1044   1072     1  0.0000000  0.0000000  3
   1048   1047   1050   1053     1  0.0000000  0.6508444  3
   1048   1047   1050   1051     1  0.0000000  0.6508444  3
   1048   1047   1050   1052     1  0.0000000  0.6508444  3
   1049   1047   1044   1072     1  0.0000000  1.0460000  1
   1049   1047   1044   1072     1  0.0000000  0.0000000  3
   1049   1047   1050   1053     1  0.0000000  0.6508444  3
   1049   1047   1050   1051     1  0.0000000  0.6508444  3
   1049   1047   1050   1052     1  0.0000000  0.6508444  3
   1050   1053   1054   1055     1  0.0000000  1.2552000  3
   1050   1053   1054   1056     1  0.0000000  1.2552000  3
   1050   1053   1063   1064     1  0.0000000  1.2552000  3
   1050   1053   1063   1065     1  0.0000000  1.2552000  3
   1051   1050   1053   1054     1  0.0000000  1.2552000  3
   1051   1050   1053   1063     1  0.0000000  1.2552000  3
   1052   1050   1053   1054     1  0.0000000  1.2552000  3
   1052   1050   1053   1063     1  0.0000000  1.2552000  3
   1053   1054   1057   1058     1  0.0000000  0.6508444  3
   1053   1054   1057   1059     1  0.0000000  0.6508444  3
   1053   1063   1066   1067     1  0.0000000  0.6508444  3
   1053   1063   1066   1068     1  0.0000000  0.6508444  3
   1054   1053   1063   1064     1  0.0000000  1.2552000  3
   1054   1053   1063   1065     1  0.0000000  1.2552000  3
   1055   1054   1053   1063     1  0.0000000  1.2552000  3
   1055   1054   1057   1060     1  0.0000000  0.6508444  3
   1055   1054   1057   1058     1  0.0000000  0.6508444  3
   1055   1054   1057   1059     1  0.0000000  0.6508444  3
   1056   1054   1053   1063     1  0.0000000  1.2552000  3
   1056   1054   1057   1060     1  0.0000000  0.6508444  3
   1056   1054   1057   1058     1  0.0000000  0.6508444  3
   1056   1054   1057   1059     1  0.0000000  0.6508444  3
   1058   1057   1060   1061     1  0.0000000  3.3472000  1
   1058   1057   1060   1061     1  0.0000000  0.0000000  2
   1058   1057   1060   1061     1  180.0000771  0.3347200  3
   1058   1057   1060   1062     1  0.0000000  3.3472000  1
   1058   1057   1060   1062     1  0.0000000  0.0000000  2
   1058   1057   1060   1062     1  180.0000771  0.3347200  3
   1059   1057   1060   1061     1  0.0000000  3.3472000  1
   1059   1057   1060   1061     1  0.0000000  0.0000000  2
   1059   1057   1060   1061     1  180.0000771  0.3347200  3
   1059   1057   1060   1062     1  0.0000000  3.3472000  1
   1059   1057   1060   1062     1  0.0000000  0.0000000  2
   1059   1057   1060   1062     1  180.0000771  0.3347200  3
   1064   1063   1066   1069     1  0.0000000  0.6508444  3
   1064   1063   1066   1067     1  0.0000000  0.6508444  3
   1064   1063   1066   1068     1  0.0000000  0.6508444  3
   1065   1063   1066   1069     1  0.0000000  0.6508444  3
   1065   1063   1066   1067     1  0.0000000  0.6508444  3
   1065   1063   1066   1068     1  0.0000000  0.6508444  3
   1067   1066   1069   1070     1  0.0000000  3.3472000  1
   1067   1066   1069   1070     1  0.0000000  0.0000000  2
   1067   1066   1069   1070     1  180.0000771  0.3347200  3
   1067   1066   1069   1071     1  0.0000000  3.3472000  1
   1067   1066   1069   1071     1  0.0000000  0.0000000  2
   1067   1066   1069   1071     1  180.0000771  0.3347200  3
   1068   1066   1069   1070     1  0.0000000  3.3472000  1
   1068   1066   1069   1070     1  0.0000000  0.0000000  2
   1068   1066   1069   1070     1  180.0000771  0.3347200  3
   1068   1066   1069   1071     1  0.0000000  3.3472000  1
   1068   1066   1069   1071     1  0.0000000  0.0000000  2
   1068   1066   1069   1071     1  180.0000771  0.3347200  3
   1073   1076   1079   1080     1  0.0000000  0.6508444  3
   1073   1076   1079   1081     1  0.0000000  0.6508444  3
   1074   1073   1076   1079     1  0.0000000  0.6508444  3
   1074   1073   1076   1077     1  0.0000000  0.6508444  3
   1074   1073   1076   1078     1  0.0000000  0.6508444  3
   1075   1073   1076   1079     1  0.0000000  0.6508444  3
   1075   1073   1076   1077     1  0.0000000  0.6508444  3
   1075   1073   1076   1078     1  0.0000000  0.6508444  3
   1077   1076   1079   1082     1  0.0000000  0.6508444  3
   1077   1076   1079   1080     1  0.0000000  0.6508444  3
   1077   1076   1079   1081     1  0.0000000  0.6508444  3
   1077   1076   1073   1101     1  0.0000000  1.0460000  1
   1077   1076   1073   1101     1  0.0000000  0.0000000  3
   1078   1076   1079   1082     1  0.0000000  0.6508444  3
   1078   1076   1079   1080     1  0.0000000  0.6508444  3
   1078   1076   1079   1081     1  0.0000000  0.6508444  3
   1078   1076   1073   1101     1  0.0000000  1.0460000  1
   1078   1076   1073   1101     1  0.0000000  0.0000000  3
   1079   1082   1083   1084     1  0.0000000  1.2552000  3
   1079   1082   1083   1085     1  0.0000000  1.2552000  3
   1079   1082   1092   1093     1  0.0000000  1.2552000  3
   1079   1082   1092   1094     1  0.0000000  1.2552000  3
   1080   1079   1082   1083     1  0.0000000  1.2552000  3
   1080   1079   1082   1092     1  0.0000000  1.2552000  3
   1081   1079   1082   1083     1  0.0000000  1.2552000  3
   1081   1079   1082   1092     1  0.0000000  1.2552000  3
   1082   1083   1086   1087     1  0.0000000  0.6508444  3
   1082   1083   1086   1088     1  0.0000000  0.6508444  3
   1082   1092   1095   1096     1  0.0000000  0.6508444  3
   1082   1092   1095   1097     1  0.0000000  0.6508444  3
   1083   1082   1092   1093     1  0.0000000  1.2552000  3
   1083   1082   1092   1094     1  0.0000000  1.2552000  3
   1084   1083   1086   1089     1  0.0000000  0.6508444  3
   1084   1083   1086   1087     1  0.0000000  0.6508444  3
   1084   1083   1086   1088     1  0.0000000  0.6508444  3
   1084   1083   1082   1092     1  0.0000000  1.2552000  3
   1085   1083   1086   1089     1  0.0000000  0.6508444  3
   1085   1083   1086   1087     1  0.0000000  0.6508444  3
   1085   1083   1086   1088     1  0.0000000  0.6508444  3
   1085   1083   1082   1092     1  0.0000000  1.2552000  3
   1087   1086   1089   1090     1  0.0000000  3.3472000  1
   1087   1086   1089   1090     1  0.0000000  0.0000000  2
   1087   1086   1089   1090     1  180.0000771  0.3347200  3
   1087   1086   1089   1091     1  0.0000000  3.3472000  1
   1087   1086   1089   1091     1  0.0000000  0.0000000  2
   1087   1086   1089   1091     1  180.0000771  0.3347200  3
   1088   1086   1089   1090     1  0.0000000  3.3472000  1
   1088   1086   1089   1090     1  0.0000000  0.0000000  2
   1088   1086   1089   1090     1  180.0000771  0.3347200  3
   1088   1086   1089   1091     1  0.0000000  3.3472000  1
   1088   1086   1089   1091     1  0.0000000  0.0000000  2
   1088   1086   1089   1091     1  180.0000771  0.3347200  3
   1093   1092   1095   1098     1  0.0000000  0.6508444  3
   1093   1092   1095   1096     1  0.0000000  0.6508444  3
   1093   1092   1095   1097     1  0.0000000  0.6508444  3
   1094   1092   1095   1098     1  0.0000000  0.6508444  3
   1094   1092   1095   1096     1  0.0000000  0.6508444  3
   1094   1092   1095   1097     1  0.0000000  0.6508444  3
   1096   1095   1098   1099     1  0.0000000  3.3472000  1
   1096   1095   1098   1099     1  0.0000000  0.0000000  2
   1096   1095   1098   1099     1  180.0000771  0.3347200  3
   1096   1095   1098   1100     1  0.0000000  3.3472000  1
   1096   1095   1098   1100     1  0.0000000  0.0000000  2
   1096   1095   1098   1100     1  180.0000771  0.3347200  3
   1097   1095   1098   1099     1  0.0000000  3.3472000  1
   1097   1095   1098   1099     1  0.0000000  0.0000000  2
   1097   1095   1098   1099     1  180.0000771  0.3347200  3
   1097   1095   1098   1100     1  0.0000000  3.3472000  1
   1097   1095   1098   1100     1  0.0000000  0.0000000  2
   1097   1095   1098   1100     1  180.0000771  0.3347200  3
   1102   1105   1108   1109     1  0.0000000  0.6508444  3
   1102   1105   1108   1110     1  0.0000000  0.6508444  3
   1103   1102   1105   1108     1  0.0000000  0.6508444  3
   1103   1102   1105   1106     1  0.0000000  0.6508444  3
   1103   1102   1105   1107     1  0.0000000  0.6508444  3
   1104   1102   1105   1108     1  0.0000000  0.6508444  3
   1104   1102   1105   1106     1  0.0000000  0.6508444  3
   1104   1102   1105   1107     1  0.0000000  0.6508444  3
   1106   1105   1102   1130     1  0.0000000  1.0460000  1
   1106   1105   1102   1130     1  0.0000000  0.0000000  3
   1106   1105   1108   1111     1  0.0000000  0.6508444  3
   1106   1105   1108   1109     1  0.0000000  0.6508444  3
   1106   1105   1108   1110     1  0.0000000  0.6508444  3
   1107   1105   1102   1130     1  0.0000000  1.0460000  1
   1107   1105   1102   1130     1  0.0000000  0.0000000  3
   1107   1105   1108   1111     1  0.0000000  0.6508444  3
   1107   1105   1108   1109     1  0.0000000  0.6508444  3
   1107   1105   1108   1110     1  0.0000000  0.6508444  3
   1108   1111   1112   1113     1  0.0000000  1.2552000  3
   1108   1111   1112   1114     1  0.0000000  1.2552000  3
   1108   1111   1121   1122     1  0.0000000  1.2552000  3
   1108   1111   1121   1123     1  0.0000000  1.2552000  3
   1109   1108   1111   1112     1  0.0000000  1.2552000  3
   1109   1108   1111   1121     1  0.0000000  1.2552000  3
   1110   1108   1111   1112     1  0.0000000  1.2552000  3
   1110   1108   1111   1121     1  0.0000000  1.2552000  3
   1111   1112   1115   1116     1  0.0000000  0.6508444  3
   1111   1112   1115   1117     1  0.0000000  0.6508444  3
   1111   1121   1124   1125     1  0.0000000  0.6508444  3
   1111   1121   1124   1126     1  0.0000000  0.6508444  3
   1112   1111   1121   1122     1  0.0000000  1.2552000  3
   1112   1111   1121   1123     1  0.0000000  1.2552000  3
   1113   1112   1111   1121     1  0.0000000  1.2552000  3
   1113   1112   1115   1118     1  0.0000000  0.6508444  3
   1113   1112   1115   1116     1  0.0000000  0.6508444  3
   1113   1112   1115   1117     1  0.0000000  0.6508444  3
   1114   1112   1111   1121     1  0.0000000  1.2552000  3
   1114   1112   1115   1118     1  0.0000000  0.6508444  3
   1114   1112   1115   1116     1  0.0000000  0.6508444  3
   1114   1112   1115   1117     1  0.0000000  0.6508444  3
   1116   1115   1118   1119     1  0.0000000  3.3472000  1
   1116   1115   1118   1119     1  0.0000000  0.0000000  2
   1116   1115   1118   1119     1  180.0000771  0.3347200  3
   1116   1115   1118   1120     1  0.0000000  3.3472000  1
   1116   1115   1118   1120     1  0.0000000  0.0000000  2
   1116   1115   1118   1120     1  180.0000771  0.3347200  3
   1117   1115   1118   1119     1  0.0000000  3.3472000  1
   1117   1115   1118   1119     1  0.0000000  0.0000000  2
   1117   1115   1118   1119     1  180.0000771  0.3347200  3
   1117   1115   1118   1120     1  0.0000000  3.3472000  1
   1117   1115   1118   1120     1  0.0000000  0.0000000  2
   1117   1115   1118   1120     1  180.0000771  0.3347200  3
   1122   1121   1124   1127     1  0.0000000  0.6508444  3
   1122   1121   1124   1125     1  0.0000000  0.6508444  3
   1122   1121   1124   1126     1  0.0000000  0.6508444  3
   1123   1121   1124   1127     1  0.0000000  0.6508444  3
   1123   1121   1124   1125     1  0.0000000  0.6508444  3
   1123   1121   1124   1126     1  0.0000000  0.6508444  3
   1125   1124   1127   1128     1  0.0000000  3.3472000  1
   1125   1124   1127   1128     1  0.0000000  0.0000000  2
   1125   1124   1127   1128     1  180.0000771  0.3347200  3
   1125   1124   1127   1129     1  0.0000000  3.3472000  1
   1125   1124   1127   1129     1  0.0000000  0.0000000  2
   1125   1124   1127   1129     1  180.0000771  0.3347200  3
   1126   1124   1127   1128     1  0.0000000  3.3472000  1
   1126   1124   1127   1128     1  0.0000000  0.0000000  2
   1126   1124   1127   1128     1  180.0000771  0.3347200  3
   1126   1124   1127   1129     1  0.0000000  3.3472000  1
   1126   1124   1127   1129     1  0.0000000  0.0000000  2
   1126   1124   1127   1129     1  180.0000771  0.3347200  3
   1131   1134   1137   1138     1  0.0000000  0.6508444  3
   1131   1134   1137   1139     1  0.0000000  0.6508444  3
   1132   1131   1134   1137     1  0.0000000  0.6508444  3
   1132   1131   1134   1135     1  0.0000000  0.6508444  3
   1132   1131   1134   1136     1  0.0000000  0.6508444  3
   1133   1131   1134   1137     1  0.0000000  0.6508444  3
   1133   1131   1134   1135     1  0.0000000  0.6508444  3
   1133   1131   1134   1136     1  0.0000000  0.6508444  3
   1135   1134   1137   1140     1  0.0000000  0.6508444  3
   1135   1134   1137   1138     1  0.0000000  0.6508444  3
   1135   1134   1137   1139     1  0.0000000  0.6508444  3
   1135   1134   1131   1159     1  0.0000000  1.0460000  1
   1135   1134   1131   1159     1  0.0000000  0.0000000  3
   1136   1134   1137   1140     1  0.0000000  0.6508444  3
   1136   1134   1137   1138     1  0.0000000  0.6508444  3
   1136   1134   1137   1139     1  0.0000000  0.6508444  3
   1136   1134   1131   1159     1  0.0000000  1.0460000  1
   1136   1134   1131   1159     1  0.0000000  0.0000000  3
   1137   1140   1141   1142     1  0.0000000  1.2552000  3
   1137   1140   1141   1143     1  0.0000000  1.2552000  3
   1137   1140   1150   1151     1  0.0000000  1.2552000  3
   1137   1140   1150   1152     1  0.0000000  1.2552000  3
   1138   1137   1140   1141     1  0.0000000  1.2552000  3
   1138   1137   1140   1150     1  0.0000000  1.2552000  3
   1139   1137   1140   1141     1  0.0000000  1.2552000  3
   1139   1137   1140   1150     1  0.0000000  1.2552000  3
   1140   1141   1144   1145     1  0.0000000  0.6508444  3
   1140   1141   1144   1146     1  0.0000000  0.6508444  3
   1140   1150   1153   1154     1  0.0000000  0.6508444  3
   1140   1150   1153   1155     1  0.0000000  0.6508444  3
   1141   1140   1150   1151     1  0.0000000  1.2552000  3
   1141   1140   1150   1152     1  0.0000000  1.2552000  3
   1142   1141   1144   1147     1  0.0000000  0.6508444  3
   1142   1141   1144   1145     1  0.0000000  0.6508444  3
   1142   1141   1144   1146     1  0.0000000  0.6508444  3
   1142   1141   1140   1150     1  0.0000000  1.2552000  3
   1143   1141   1144   1147     1  0.0000000  0.6508444  3
   1143   1141   1144   1145     1  0.0000000  0.6508444  3
   1143   1141   1144   1146     1  0.0000000  0.6508444  3
   1143   1141   1140   1150     1  0.0000000  1.2552000  3
   1145   1144   1147   1148     1  0.0000000  3.3472000  1
   1145   1144   1147   1148     1  0.0000000  0.0000000  2
   1145   1144   1147   1148     1  180.0000771  0.3347200  3
   1145   1144   1147   1149     1  0.0000000  3.3472000  1
   1145   1144   1147   1149     1  0.0000000  0.0000000  2
   1145   1144   1147   1149     1  180.0000771  0.3347200  3
   1146   1144   1147   1148     1  0.0000000  3.3472000  1
   1146   1144   1147   1148     1  0.0000000  0.0000000  2
   1146   1144   1147   1148     1  180.0000771  0.3347200  3
   1146   1144   1147   1149     1  0.0000000  3.3472000  1
   1146   1144   1147   1149     1  0.0000000  0.0000000  2
   1146   1144   1147   1149     1  180.0000771  0.3347200  3
   1151   1150   1153   1156     1  0.0000000  0.6508444  3
   1151   1150   1153   1154     1  0.0000000  0.6508444  3
   1151   1150   1153   1155     1  0.0000000  0.6508444  3
   1152   1150   1153   1156     1  0.0000000  0.6508444  3
   1152   1150   1153   1154     1  0.0000000  0.6508444  3
   1152   1150   1153   1155     1  0.0000000  0.6508444  3
   1154   1153   1156   1157     1  0.0000000  3.3472000  1
   1154   1153   1156   1157     1  0.0000000  0.0000000  2
   1154   1153   1156   1157     1  180.0000771  0.3347200  3
   1154   1153   1156   1158     1  0.0000000  3.3472000  1
   1154   1153   1156   1158     1  0.0000000  0.0000000  2
   1154   1153   1156   1158     1  180.0000771  0.3347200  3
   1155   1153   1156   1157     1  0.0000000  3.3472000  1
   1155   1153   1156   1157     1  0.0000000  0.0000000  2
   1155   1153   1156   1157     1  180.0000771  0.3347200  3
   1155   1153   1156   1158     1  0.0000000  3.3472000  1
   1155   1153   1156   1158     1  0.0000000  0.0000000  2
   1155   1153   1156   1158     1  180.0000771  0.3347200  3
   1160   1163   1166   1167     1  0.0000000  0.6508444  3
   1160   1163   1166   1168     1  0.0000000  0.6508444  3
   1161   1160   1163   1166     1  0.0000000  0.6508444  3
   1161   1160   1163   1164     1  0.0000000  0.6508444  3
   1161   1160   1163   1165     1  0.0000000  0.6508444  3
   1162   1160   1163   1166     1  0.0000000  0.6508444  3
   1162   1160   1163   1164     1  0.0000000  0.6508444  3
   1162   1160   1163   1165     1  0.0000000  0.6508444  3
   1164   1163   1160   1188     1  0.0000000  1.0460000  1
   1164   1163   1160   1188     1  0.0000000  0.0000000  3
   1164   1163   1166   1169     1  0.0000000  0.6508444  3
   1164   1163   1166   1167     1  0.0000000  0.6508444  3
   1164   1163   1166   1168     1  0.0000000  0.6508444  3
   1165   1163   1160   1188     1  0.0000000  1.0460000  1
   1165   1163   1160   1188     1  0.0000000  0.0000000  3
   1165   1163   1166   1169     1  0.0000000  0.6508444  3
   1165   1163   1166   1167     1  0.0000000  0.6508444  3
   1165   1163   1166   1168     1  0.0000000  0.6508444  3
   1166   1169   1170   1171     1  0.0000000  1.2552000  3
   1166   1169   1170   1172     1  0.0000000  1.2552000  3
   1166   1169   1179   1180     1  0.0000000  1.2552000  3
   1166   1169   1179   1181     1  0.0000000  1.2552000  3
   1167   1166   1169   1170     1  0.0000000  1.2552000  3
   1167   1166   1169   1179     1  0.0000000  1.2552000  3
   1168   1166   1169   1170     1  0.0000000  1.2552000  3
   1168   1166   1169   1179     1  0.0000000  1.2552000  3
   1169   1170   1173   1174     1  0.0000000  0.6508444  3
   1169   1170   1173   1175     1  0.0000000  0.6508444  3
   1169   1179   1182   1183     1  0.0000000  0.6508444  3
   1169   1179   1182   1184     1  0.0000000  0.6508444  3
   1170   1169   1179   1180     1  0.0000000  1.2552000  3
   1170   1169   1179   1181     1  0.0000000  1.2552000  3
   1171   1170   1169   1179     1  0.0000000  1.2552000  3
   1171   1170   1173   1176     1  0.0000000  0.6508444  3
   1171   1170   1173   1174     1  0.0000000  0.6508444  3
   1171   1170   1173   1175     1  0.0000000  0.6508444  3
   1172   1170   1169   1179     1  0.0000000  1.2552000  3
   1172   1170   1173   1176     1  0.0000000  0.6508444  3
   1172   1170   1173   1174     1  0.0000000  0.6508444  3
   1172   1170   1173   1175     1  0.0000000  0.6508444  3
   1174   1173   1176   1177     1  0.0000000  3.3472000  1
   1174   1173   1176   1177     1  0.0000000  0.0000000  2
   1174   1173   1176   1177     1  180.0000771  0.3347200  3
   1174   1173   1176   1178     1  0.0000000  3.3472000  1
   1174   1173   1176   1178     1  0.0000000  0.0000000  2
   1174   1173   1176   1178     1  180.0000771  0.3347200  3
   1175   1173   1176   1177     1  0.0000000  3.3472000  1
   1175   1173   1176   1177     1  0.0000000  0.0000000  2
   1175   1173   1176   1177     1  180.0000771  0.3347200  3
   1175   1173   1176   1178     1  0.0000000  3.3472000  1
   1175   1173   1176   1178     1  0.0000000  0.0000000  2
   1175   1173   1176   1178     1  180.0000771  0.3347200  3
   1180   1179   1182   1185     1  0.0000000  0.6508444  3
   1180   1179   1182   1183     1  0.0000000  0.6508444  3
   1180   1179   1182   1184     1  0.0000000  0.6508444  3
   1181   1179   1182   1185     1  0.0000000  0.6508444  3
   1181   1179   1182   1183     1  0.0000000  0.6508444  3
   1181   1179   1182   1184     1  0.0000000  0.6508444  3
   1183   1182   1185   1186     1  0.0000000  3.3472000  1
   1183   1182   1185   1186     1  0.0000000  0.0000000  2
   1183   1182   1185   1186     1  180.0000771  0.3347200  3
   1183   1182   1185   1187     1  0.0000000  3.3472000  1
   1183   1182   1185   1187     1  0.0000000  0.0000000  2
   1183   1182   1185   1187     1  180.0000771  0.3347200  3
   1184   1182   1185   1186     1  0.0000000  3.3472000  1
   1184   1182   1185   1186     1  0.0000000  0.0000000  2
   1184   1182   1185   1186     1  180.0000771  0.3347200  3
   1184   1182   1185   1187     1  0.0000000  3.3472000  1
   1184   1182   1185   1187     1  0.0000000  0.0000000  2
   1184   1182   1185   1187     1  180.0000771  0.3347200  3
   1189   1192   1195   1196     1  0.0000000  0.6508444  3
   1189   1192   1195   1197     1  0.0000000  0.6508444  3
   1190   1189   1192   1195     1  0.0000000  0.6508444  3
   1190   1189   1192   1193     1  0.0000000  0.6508444  3
   1190   1189   1192   1194     1  0.0000000  0.6508444  3
   1191   1189   1192   1195     1  0.0000000  0.6508444  3
   1191   1189   1192   1193     1  0.0000000  0.6508444  3
   1191   1189   1192   1194     1  0.0000000  0.6508444  3
   1193   1192   1195   1198     1  0.0000000  0.6508444  3
   1193   1192   1195   1196     1  0.0000000  0.6508444  3
   1193   1192   1195   1197     1  0.0000000  0.6508444  3
   1193   1192   1189   1217     1  0.0000000  1.0460000  1
   1193   1192   1189   1217     1  0.0000000  0.0000000  3
   1194   1192   1195   1198     1  0.0000000  0.6508444  3
   1194   1192   1195   1196     1  0.0000000  0.6508444  3
   1194   1192   1195   1197     1  0.0000000  0.6508444  3
   1194   1192   1189   1217     1  0.0000000  1.0460000  1
   1194   1192   1189   1217     1  0.0000000  0.0000000  3
   1195   1198   1199   1200     1  0.0000000  1.2552000  3
   1195   1198   1199   1201     1  0.0000000  1.2552000  3
   1195   1198   1208   1209     1  0.0000000  1.2552000  3
   1195   1198   1208   1210     1  0.0000000  1.2552000  3
   1196   1195   1198   1199     1  0.0000000  1.2552000  3
   1196   1195   1198   1208     1  0.0000000  1.2552000  3
   1197   1195   1198   1199     1  0.0000000  1.2552000  3
   1197   1195   1198   1208     1  0.0000000  1.2552000  3
   1198   1199   1202   1203     1  0.0000000  0.6508444  3
   1198   1199   1202   1204     1  0.0000000  0.6508444  3
   1198   1208   1211   1212     1  0.0000000  0.6508444  3
   1198   1208   1211   1213     1  0.0000000  0.6508444  3
   1199   1198   1208   1209     1  0.0000000  1.2552000  3
   1199   1198   1208   1210     1  0.0000000  1.2552000  3
   1200   1199   1202   1205     1  0.0000000  0.6508444  3
   1200   1199   1202   1203     1  0.0000000  0.6508444  3
   1200   1199   1202   1204     1  0.0000000  0.6508444  3
   1200   1199   1198   1208     1  0.0000000  1.2552000  3
   1201   1199   1202   1205     1  0.0000000  0.6508444  3
   1201   1199   1202   1203     1  0.0000000  0.6508444  3
   1201   1199   1202   1204     1  0.0000000  0.6508444  3
   1201   1199   1198   1208     1  0.0000000  1.2552000  3
   1203   1202   1205   1206     1  0.0000000  3.3472000  1
   1203   1202   1205   1206     1  0.0000000  0.0000000  2
   1203   1202   1205   1206     1  180.0000771  0.3347200  3
   1203   1202   1205   1207     1  0.0000000  3.3472000  1
   1203   1202   1205   1207     1  0.0000000  0.0000000  2
   1203   1202   1205   1207     1  180.0000771  0.3347200  3
   1204   1202   1205   1206     1  0.0000000  3.3472000  1
   1204   1202   1205   1206     1  0.0000000  0.0000000  2
   1204   1202   1205   1206     1  180.0000771  0.3347200  3
   1204   1202   1205   1207     1  0.0000000  3.3472000  1
   1204   1202   1205   1207     1  0.0000000  0.0000000  2
   1204   1202   1205   1207     1  180.0000771  0.3347200  3
   1209   1208   1211   1214     1  0.0000000  0.6508444  3
   1209   1208   1211   1212     1  0.0000000  0.6508444  3
   1209   1208   1211   1213     1  0.0000000  0.6508444  3
   1210   1208   1211   1214     1  0.0000000  0.6508444  3
   1210   1208   1211   1212     1  0.0000000  0.6508444  3
   1210   1208   1211   1213     1  0.0000000  0.6508444  3
   1212   1211   1214   1215     1  0.0000000  3.3472000  1
   1212   1211   1214   1215     1  0.0000000  0.0000000  2
   1212   1211   1214   1215     1  180.0000771  0.3347200  3
   1212   1211   1214   1216     1  0.0000000  3.3472000  1
   1212   1211   1214   1216     1  0.0000000  0.0000000  2
   1212   1211   1214   1216     1  180.0000771  0.3347200  3
   1213   1211   1214   1215     1  0.0000000  3.3472000  1
   1213   1211   1214   1215     1  0.0000000  0.0000000  2
   1213   1211   1214   1215     1  180.0000771  0.3347200  3
   1213   1211   1214   1216     1  0.0000000  3.3472000  1
   1213   1211   1214   1216     1  0.0000000  0.0000000  2
   1213   1211   1214   1216     1  180.0000771  0.3347200  3
   1218   1221   1224   1225     1  0.0000000  0.6508444  3
   1218   1221   1224   1226     1  0.0000000  0.6508444  3
   1219   1218   1221   1224     1  0.0000000  0.6508444  3
   1219   1218   1221   1222     1  0.0000000  0.6508444  3
   1219   1218   1221   1223     1  0.0000000  0.6508444  3
   1220   1218   1221   1224     1  0.0000000  0.6508444  3
   1220   1218   1221   1222     1  0.0000000  0.6508444  3
   1220   1218   1221   1223     1  0.0000000  0.6508444  3
   1222   1221   1218   1246     1  0.0000000  1.0460000  1
   1222   1221   1218   1246     1  0.0000000  0.0000000  3
   1222   1221   1224   1227     1  0.0000000  0.6508444  3
   1222   1221   1224   1225     1  0.0000000  0.6508444  3
   1222   1221   1224   1226     1  0.0000000  0.6508444  3
   1223   1221   1218   1246     1  0.0000000  1.0460000  1
   1223   1221   1218   1246     1  0.0000000  0.0000000  3
   1223   1221   1224   1227     1  0.0000000  0.6508444  3
   1223   1221   1224   1225     1  0.0000000  0.6508444  3
   1223   1221   1224   1226     1  0.0000000  0.6508444  3
   1224   1227   1228   1229     1  0.0000000  1.2552000  3
   1224   1227   1228   1230     1  0.0000000  1.2552000  3
   1224   1227   1237   1238     1  0.0000000  1.2552000  3
   1224   1227   1237   1239     1  0.0000000  1.2552000  3
   1225   1224   1227   1228     1  0.0000000  1.2552000  3
   1225   1224   1227   1237     1  0.0000000  1.2552000  3
   1226   1224   1227   1228     1  0.0000000  1.2552000  3
   1226   1224   1227   1237     1  0.0000000  1.2552000  3
   1227   1228   1231   1232     1  0.0000000  0.6508444  3
   1227   1228   1231   1233     1  0.0000000  0.6508444  3
   1227   1237   1240   1241     1  0.0000000  0.6508444  3
   1227   1237   1240   1242     1  0.0000000  0.6508444  3
   1228   1227   1237   1238     1  0.0000000  1.2552000  3
   1228   1227   1237   1239     1  0.0000000  1.2552000  3
   1229   1228   1227   1237     1  0.0000000  1.2552000  3
   1229   1228   1231   1234     1  0.0000000  0.6508444  3
   1229   1228   1231   1232     1  0.0000000  0.6508444  3
   1229   1228   1231   1233     1  0.0000000  0.6508444  3
   1230   1228   1227   1237     1  0.0000000  1.2552000  3
   1230   1228   1231   1234     1  0.0000000  0.6508444  3
   1230   1228   1231   1232     1  0.0000000  0.6508444  3
   1230   1228   1231   1233     1  0.0000000  0.6508444  3
   1232   1231   1234   1235     1  0.0000000  3.3472000  1
   1232   1231   1234   1235     1  0.0000000  0.0000000  2
   1232   1231   1234   1235     1  180.0000771  0.3347200  3
   1232   1231   1234   1236     1  0.0000000  3.3472000  1
   1232   1231   1234   1236     1  0.0000000  0.0000000  2
   1232   1231   1234   1236     1  180.0000771  0.3347200  3
   1233   1231   1234   1235     1  0.0000000  3.3472000  1
   1233   1231   1234   1235     1  0.0000000  0.0000000  2
   1233   1231   1234   1235     1  180.0000771  0.3347200  3
   1233   1231   1234   1236     1  0.0000000  3.3472000  1
   1233   1231   1234   1236     1  0.0000000  0.0000000  2
   1233   1231   1234   1236     1  180.0000771  0.3347200  3
   1238   1237   1240   1243     1  0.0000000  0.6508444  3
   1238   1237   1240   1241     1  0.0000000  0.6508444  3
   1238   1237   1240   1242     1  0.0000000  0.6508444  3
   1239   1237   1240   1243     1  0.0000000  0.6508444  3
   1239   1237   1240   1241     1  0.0000000  0.6508444  3
   1239   1237   1240   1242     1  0.0000000  0.6508444  3
   1241   1240   1243   1244     1  0.0000000  3.3472000  1
   1241   1240   1243   1244     1  0.0000000  0.0000000  2
   1241   1240   1243   1244     1  180.0000771  0.3347200  3
   1241   1240   1243   1245     1  0.0000000  3.3472000  1
   1241   1240   1243   1245     1  0.0000000  0.0000000  2
   1241   1240   1243   1245     1  180.0000771  0.3347200  3
   1242   1240   1243   1244     1  0.0000000  3.3472000  1
   1242   1240   1243   1244     1  0.0000000  0.0000000  2
   1242   1240   1243   1244     1  180.0000771  0.3347200  3
   1242   1240   1243   1245     1  0.0000000  3.3472000  1
   1242   1240   1243   1245     1  0.0000000  0.0000000  2
   1242   1240   1243   1245     1  180.0000771  0.3347200  3
   1247   1250   1253   1254     1  0.0000000  0.6508444  3
   1247   1250   1253   1255     1  0.0000000  0.6508444  3
   1248   1247   1250   1253     1  0.0000000  0.6508444  3
   1248   1247   1250   1251     1  0.0000000  0.6508444  3
   1248   1247   1250   1252     1  0.0000000  0.6508444  3
   1249   1247   1250   1253     1  0.0000000  0.6508444  3
   1249   1247   1250   1251     1  0.0000000  0.6508444  3
   1249   1247   1250   1252     1  0.0000000  0.6508444  3
   1251   1250   1253   1256     1  0.0000000  0.6508444  3
   1251   1250   1253   1254     1  0.0000000  0.6508444  3
   1251   1250   1253   1255     1  0.0000000  0.6508444  3
   1251   1250   1247   1275     1  0.0000000  1.0460000  1
   1251   1250   1247   1275     1  0.0000000  0.0000000  3
   1252   1250   1253   1256     1  0.0000000  0.6508444  3
   1252   1250   1253   1254     1  0.0000000  0.6508444  3
   1252   1250   1253   1255     1  0.0000000  0.6508444  3
   1252   1250   1247   1275     1  0.0000000  1.0460000  1
   1252   1250   1247   1275     1  0.0000000  0.0000000  3
   1253   1256   1257   1258     1  0.0000000  1.2552000  3
   1253   1256   1257   1259     1  0.0000000  1.2552000  3
   1253   1256   1266   1267     1  0.0000000  1.2552000  3
   1253   1256   1266   1268     1  0.0000000  1.2552000  3
   1254   1253   1256   1257     1  0.0000000  1.2552000  3
   1254   1253   1256   1266     1  0.0000000  1.2552000  3
   1255   1253   1256   1257     1  0.0000000  1.2552000  3
   1255   1253   1256   1266     1  0.0000000  1.2552000  3
   1256   1257   1260   1261     1  0.0000000  0.6508444  3
   1256   1257   1260   1262     1  0.0000000  0.6508444  3
   1256   1266   1269   1270     1  0.0000000  0.6508444  3
   1256   1266   1269   1271     1  0.0000000  0.6508444  3
   1257   1256   1266   1267     1  0.0000000  1.2552000  3
   1257   1256   1266   1268     1  0.0000000  1.2552000  3
   1258   1257   1260   1263     1  0.0000000  0.6508444  3
   1258   1257   1260   1261     1  0.0000000  0.6508444  3
   1258   1257   1260   1262     1  0.0000000  0.6508444  3
   1258   1257   1256   1266     1  0.0000000  1.2552000  3
   1259   1257   1260   1263     1  0.0000000  0.6508444  3
   1259   1257   1260   1261     1  0.0000000  0.6508444  3
   1259   1257   1260   1262     1  0.0000000  0.6508444  3
   1259   1257   1256   1266     1  0.0000000  1.2552000  3
   1261   1260   1263   1264     1  0.0000000  3.3472000  1
   1261   1260   1263   1264     1  0.0000000  0.0000000  2
   1261   1260   1263   1264     1  180.0000771  0.3347200  3
   1261   1260   1263   1265     1  0.0000000  3.3472000  1
   1261   1260   1263   1265     1  0.0000000  0.0000000  2
   1261   1260   1263   1265     1  180.0000771  0.3347200  3
   1262   1260   1263   1264     1  0.0000000  3.3472000  1
   1262   1260   1263   1264     1  0.0000000  0.0000000  2
   1262   1260   1263   1264     1  180.0000771  0.3347200  3
   1262   1260   1263   1265     1  0.0000000  3.3472000  1
   1262   1260   1263   1265     1  0.0000000  0.0000000  2
   1262   1260   1263   1265     1  180.0000771  0.3347200  3
   1267   1266   1269   1272     1  0.0000000  0.6508444  3
   1267   1266   1269   1270     1  0.0000000  0.6508444  3
   1267   1266   1269   1271     1  0.0000000  0.6508444  3
   1268   1266   1269   1272     1  0.0000000  0.6508444  3
   1268   1266   1269   1270     1  0.0000000  0.6508444  3
   1268   1266   1269   1271     1  0.0000000  0.6508444  3
   1270   1269   1272   1273     1  0.0000000  3.3472000  1
   1270   1269   1272   1273     1  0.0000000  0.0000000  2
   1270   1269   1272   1273     1  180.0000771  0.3347200  3
   1270   1269   1272   1274     1  0.0000000  3.3472000  1
   1270   1269   1272   1274     1  0.0000000  0.0000000  2
   1270   1269   1272   1274     1  180.0000771  0.3347200  3
   1271   1269   1272   1273     1  0.0000000  3.3472000  1
   1271   1269   1272   1273     1  0.0000000  0.0000000  2
   1271   1269   1272   1273     1  180.0000771  0.3347200  3
   1271   1269   1272   1274     1  0.0000000  3.3472000  1
   1271   1269   1272   1274     1  0.0000000  0.0000000  2
   1271   1269   1272   1274     1  180.0000771  0.3347200  3
   1276   1279   1282   1283     1  0.0000000  0.6508444  3
   1276   1279   1282   1284     1  0.0000000  0.6508444  3
   1277   1276   1279   1282     1  0.0000000  0.6508444  3
   1277   1276   1279   1280     1  0.0000000  0.6508444  3
   1277   1276   1279   1281     1  0.0000000  0.6508444  3
   1278   1276   1279   1282     1  0.0000000  0.6508444  3
   1278   1276   1279   1280     1  0.0000000  0.6508444  3
   1278   1276   1279   1281     1  0.0000000  0.6508444  3
   1280   1279   1276   1304     1  0.0000000  1.0460000  1
   1280   1279   1276   1304     1  0.0000000  0.0000000  3
   1280   1279   1282   1285     1  0.0000000  0.6508444  3
   1280   1279   1282   1283     1  0.0000000  0.6508444  3
   1280   1279   1282   1284     1  0.0000000  0.6508444  3
   1281   1279   1276   1304     1  0.0000000  1.0460000  1
   1281   1279   1276   1304     1  0.0000000  0.0000000  3
   1281   1279   1282   1285     1  0.0000000  0.6508444  3
   1281   1279   1282   1283     1  0.0000000  0.6508444  3
   1281   1279   1282   1284     1  0.0000000  0.6508444  3
   1282   1285   1286   1287     1  0.0000000  1.2552000  3
   1282   1285   1286   1288     1  0.0000000  1.2552000  3
   1282   1285   1295   1296     1  0.0000000  1.2552000  3
   1282   1285   1295   1297     1  0.0000000  1.2552000  3
   1283   1282   1285   1286     1  0.0000000  1.2552000  3
   1283   1282   1285   1295     1  0.0000000  1.2552000  3
   1284   1282   1285   1286     1  0.0000000  1.2552000  3
   1284   1282   1285   1295     1  0.0000000  1.2552000  3
   1285   1286   1289   1290     1  0.0000000  0.6508444  3
   1285   1286   1289   1291     1  0.0000000  0.6508444  3
   1285   1295   1298   1299     1  0.0000000  0.6508444  3
   1285   1295   1298   1300     1  0.0000000  0.6508444  3
   1286   1285   1295   1296     1  0.0000000  1.2552000  3
   1286   1285   1295   1297     1  0.0000000  1.2552000  3
   1287   1286   1285   1295     1  0.0000000  1.2552000  3
   1287   1286   1289   1292     1  0.0000000  0.6508444  3
   1287   1286   1289   1290     1  0.0000000  0.6508444  3
   1287   1286   1289   1291     1  0.0000000  0.6508444  3
   1288   1286   1285   1295     1  0.0000000  1.2552000  3
   1288   1286   1289   1292     1  0.0000000  0.6508444  3
   1288   1286   1289   1290     1  0.0000000  0.6508444  3
   1288   1286   1289   1291     1  0.0000000  0.6508444  3
   1290   1289   1292   1293     1  0.0000000  3.3472000  1
   1290   1289   1292   1293     1  0.0000000  0.0000000  2
   1290   1289   1292   1293     1  180.0000771  0.3347200  3
   1290   1289   1292   1294     1  0.0000000  3.3472000  1
   1290   1289   1292   1294     1  0.0000000  0.0000000  2
   1290   1289   1292   1294     1  180.0000771  0.3347200  3
   1291   1289   1292   1293     1  0.0000000  3.3472000  1
   1291   1289   1292   1293     1  0.0000000  0.0000000  2
   1291   1289   1292   1293     1  180.0000771  0.3347200  3
   1291   1289   1292   1294     1  0.0000000  3.3472000  1
   1291   1289   1292   1294     1  0.0000000  0.0000000  2
   1291   1289   1292   1294     1  180.0000771  0.3347200  3
   1296   1295   1298   1301     1  0.0000000  0.6508444  3
   1296   1295   1298   1299     1  0.0000000  0.6508444  3
   1296   1295   1298   1300     1  0.0000000  0.6508444  3
   1297   1295   1298   1301     1  0.0000000  0.6508444  3
   1297   1295   1298   1299     1  0.0000000  0.6508444  3
   1297   1295   1298   1300     1  0.0000000  0.6508444  3
   1299   1298   1301   1302     1  0.0000000  3.3472000  1
   1299   1298   1301   1302     1  0.0000000  0.0000000  2
   1299   1298   1301   1302     1  180.0000771  0.3347200  3
   1299   1298   1301   1303     1  0.0000000  3.3472000  1
   1299   1298   1301   1303     1  0.0000000  0.0000000  2
   1299   1298   1301   1303     1  180.0000771  0.3347200  3
   1300   1298   1301   1302     1  0.0000000  3.3472000  1
   1300   1298   1301   1302     1  0.0000000  0.0000000  2
   1300   1298   1301   1302     1  180.0000771  0.3347200  3
   1300   1298   1301   1303     1  0.0000000  3.3472000  1
   1300   1298   1301   1303     1  0.0000000  0.0000000  2
   1300   1298   1301   1303     1  180.0000771  0.3347200  3
   1305   1308   1311   1312     1  0.0000000  0.6508444  3
   1305   1308   1311   1313     1  0.0000000  0.6508444  3
   1306   1305   1308   1311     1  0.0000000  0.6508444  3
   1306   1305   1308   1309     1  0.0000000  0.6508444  3
   1306   1305   1308   1310     1  0.0000000  0.6508444  3
   1307   1305   1308   1311     1  0.0000000  0.6508444  3
   1307   1305   1308   1309     1  0.0000000  0.6508444  3
   1307   1305   1308   1310     1  0.0000000  0.6508444  3
   1309   1308   1311   1314     1  0.0000000  0.6508444  3
   1309   1308   1311   1312     1  0.0000000  0.6508444  3
   1309   1308   1311   1313     1  0.0000000  0.6508444  3
   1309   1308   1305   1333     1  0.0000000  1.0460000  1
   1309   1308   1305   1333     1  0.0000000  0.0000000  3
   1310   1308   1311   1314     1  0.0000000  0.6508444  3
   1310   1308   1311   1312     1  0.0000000  0.6508444  3
   1310   1308   1311   1313     1  0.0000000  0.6508444  3
   1310   1308   1305   1333     1  0.0000000  1.0460000  1
   1310   1308   1305   1333     1  0.0000000  0.0000000  3
   1311   1314   1315   1316     1  0.0000000  1.2552000  3
   1311   1314   1315   1317     1  0.0000000  1.2552000  3
   1311   1314   1324   1325     1  0.0000000  1.2552000  3
   1311   1314   1324   1326     1  0.0000000  1.2552000  3
   1312   1311   1314   1315     1  0.0000000  1.2552000  3
   1312   1311   1314   1324     1  0.0000000  1.2552000  3
   1313   1311   1314   1315     1  0.0000000  1.2552000  3
   1313   1311   1314   1324     1  0.0000000  1.2552000  3
   1314   1315   1318   1319     1  0.0000000  0.6508444  3
   1314   1315   1318   1320     1  0.0000000  0.6508444  3
   1314   1324   1327   1328     1  0.0000000  0.6508444  3
   1314   1324   1327   1329     1  0.0000000  0.6508444  3
   1315   1314   1324   1325     1  0.0000000  1.2552000  3
   1315   1314   1324   1326     1  0.0000000  1.2552000  3
   1316   1315   1318   1321     1  0.0000000  0.6508444  3
   1316   1315   1318   1319     1  0.0000000  0.6508444  3
   1316   1315   1318   1320     1  0.0000000  0.6508444  3
   1316   1315   1314   1324     1  0.0000000  1.2552000  3
   1317   1315   1318   1321     1  0.0000000  0.6508444  3
   1317   1315   1318   1319     1  0.0000000  0.6508444  3
   1317   1315   1318   1320     1  0.0000000  0.6508444  3
   1317   1315   1314   1324     1  0.0000000  1.2552000  3
   1319   1318   1321   1322     1  0.0000000  3.3472000  1
   1319   1318   1321   1322     1  0.0000000  0.0000000  2
   1319   1318   1321   1322     1  180.0000771  0.3347200  3
   1319   1318   1321   1323     1  0.0000000  3.3472000  1
   1319   1318   1321   1323     1  0.0000000  0.0000000  2
   1319   1318   1321   1323     1  180.0000771  0.3347200  3
   1320   1318   1321   1322     1  0.0000000  3.3472000  1
   1320   1318   1321   1322     1  0.0000000  0.0000000  2
   1320   1318   1321   1322     1  180.0000771  0.3347200  3
   1320   1318   1321   1323     1  0.0000000  3.3472000  1
   1320   1318   1321   1323     1  0.0000000  0.0000000  2
   1320   1318   1321   1323     1  180.0000771  0.3347200  3
   1325   1324   1327   1330     1  0.0000000  0.6508444  3
   1325   1324   1327   1328     1  0.0000000  0.6508444  3
   1325   1324   1327   1329     1  0.0000000  0.6508444  3
   1326   1324   1327   1330     1  0.0000000  0.6508444  3
   1326   1324   1327   1328     1  0.0000000  0.6508444  3
   1326   1324   1327   1329     1  0.0000000  0.6508444  3
   1328   1327   1330   1331     1  0.0000000  3.3472000  1
   1328   1327   1330   1331     1  0.0000000  0.0000000  2
   1328   1327   1330   1331     1  180.0000771  0.3347200  3
   1328   1327   1330   1332     1  0.0000000  3.3472000  1
   1328   1327   1330   1332     1  0.0000000  0.0000000  2
   1328   1327   1330   1332     1  180.0000771  0.3347200  3
   1329   1327   1330   1331     1  0.0000000  3.3472000  1
   1329   1327   1330   1331     1  0.0000000  0.0000000  2
   1329   1327   1330   1331     1  180.0000771  0.3347200  3
   1329   1327   1330   1332     1  0.0000000  3.3472000  1
   1329   1327   1330   1332     1  0.0000000  0.0000000  2
   1329   1327   1330   1332     1  180.0000771  0.3347200  3

;[ system ]
;; Name
;Generic title
;
;[ molecules ]
;; Compound       #mols
;g3.5Ncore_coo-petim   1
