G3.5ncore-PETIM in water
63353
    1aaa     N1    1   5.888   8.151   0.470  0.3814  0.2827  0.1378
    1aaa     C1    2   5.836   8.191   0.336  0.6514 -0.0309  0.1635
    1aaa     H1    3   5.884   8.284   0.305 -1.3365 -0.4723 -5.1840
    1aaa     H2    4   5.856   8.117   0.257 -2.9009 -1.5646  0.5050
    1aaa     C2    5   5.854   8.232   0.593 -0.3307 -0.3631 -0.1406
    1aaa     H3    6   5.755   8.207   0.635 -0.9651  2.7935  0.5096
    1aaa     H4    7   5.916   8.201   0.678  1.3458  3.1199  0.0859
    1aaa     C3    8   6.031   8.105   0.451 -0.2704  0.0977 -0.5800
    1aaa     H5    9   6.064   8.082   0.553 -1.4991  1.4031  0.1435
    1aaa     H6   10   6.036   8.014   0.390 -3.1680 -0.4132 -0.1729
    1aaa     C4   11   6.132   8.203   0.391 -0.0469 -0.1074  0.4007
    1aaa     H7   12   6.105   8.228   0.287  0.9511 -1.5709 -0.2457
    1aaa     H8   13   6.134   8.298   0.447 -2.4493  0.5602 -0.4926
    1aaa     C5   14   5.686   8.200   0.318 -0.4471  0.2351 -0.7838
    1aaa     H9   15   5.645   8.098   0.313 -2.1539  0.6530  2.3131
    1aaa    H10   16   5.643   8.263   0.397  1.0157 -0.0205  0.2425
    1aaa     C6   17   5.874   8.382   0.567  0.2244  0.4002 -0.2358
    1aaa    H11   18   5.948   8.398   0.487  0.1291 -0.1948 -0.4505
    1aaa    H12   19   5.777   8.429   0.544 -2.3496 -3.3590  1.8895
    1aaa     C7   20   5.925   8.452   0.699  0.1093 -0.3632 -0.0660
    1aaa    H13   21   5.876   8.404   0.785  1.1439  0.1356  0.8356
    1aaa    H14   22   6.031   8.423   0.708  0.1563  0.1335  1.3240
    1aaa     C8   23   6.279   8.142   0.396 -0.0983 -0.1979  0.0568
    1aaa    H15   24   6.322   8.159   0.496 -1.7211  1.5475  0.5120
    1aaa    H16   25   6.275   8.033   0.385 -0.4499  0.0872 -4.7675
    1aaa     C9   26   5.659   8.269   0.184 -0.5207 -0.7075  0.1564
    1aaa    H17   27   5.748   8.277   0.122  0.5323  0.5443  1.7203
    1aaa    H18   28   5.575   8.230   0.127 -0.7440  0.8109 -0.6139
    2bbb     N1   29   5.950   9.037   0.690 -0.4687 -0.3499  0.1533
    2bbb     C1   30   5.809   9.071   0.684  0.1780  0.4548  0.4338
    2bbb     H1   31   5.785   9.177   0.703 -1.2581  0.0413  1.0704
    2bbb     H2   32   5.747   9.017   0.756 -1.1229  0.4867 -0.6111
    2bbb     C2   33   6.037   9.113   0.596  0.1292  0.1155  0.0028
    2bbb     H3   34   6.024   9.080   0.492  1.0546  2.1990 -0.8434
    2bbb     H4   35   6.140   9.093   0.630 -0.1571  0.7898  1.3479
    2bbb     C3   36   5.987   8.894   0.685  0.4230  0.8233 -0.6929
    2bbb     H5   37   6.094   8.885   0.711  0.7207 -0.9261 -2.2291
    2bbb     H6   38   5.974   8.863   0.580  2.0626  1.4464 -1.1265
    2bbb     C4   39   5.899   8.816   0.787  0.0145  0.1162 -0.0361
    2bbb     H7   40   5.793   8.811   0.761  0.2636  0.3990 -1.1643
    2bbb     H8   41   5.888   8.862   0.887 -2.0676 -0.2262 -0.0715
    2bbb     C5   42   5.744   9.038   0.542 -0.4753 -0.2767 -0.1291
    2bbb     H9   43   5.766   8.937   0.505 -1.6725 -0.2688 -0.9261
    2bbb    H10   44   5.791   9.107   0.471  1.5236 -0.2527  1.1417
    2bbb     C6   45   6.017   9.270   0.597 -0.2983 -0.0465  1.0780
    2bbb    H11   46   6.025   9.304   0.700  2.6393 -0.1058  0.9513
    2bbb    H12   47   5.921   9.295   0.549  0.4753  1.7986  0.3975
    2bbb     C7   48   5.935   8.667   0.819  0.4869 -0.1708  0.1763
    2bbb    H13   49   5.878   8.617   0.899 -0.2995  0.0184 -0.2549
    2bbb    H14   50   6.042   8.662   0.839  0.3403 -3.0672  0.7714
    2bbb     C8   51   6.129   9.347   0.523  0.2133 -0.9097  0.5529
    2bbb    H15   52   6.096   9.450   0.507  0.1331 -0.6063  2.4120
    2bbb    H16   53   6.144   9.291   0.430 -2.3199 -1.4185  0.3738
    2bbb     C9   54   5.589   9.036   0.534  0.2272 -0.1163  0.3977
    2bbb    H17   55   5.542   9.129   0.567  0.5557  0.0159  0.4976
    2bbb    H18   56   5.550   8.952   0.594  2.0548 -0.5563  1.0432
    2bbb     O1   57   5.900   8.590   0.695 -0.1387  0.3540  0.0305
    3bbb     N1   58   6.689   8.348   0.017 -0.5890  0.1813  0.0746
    3bbb     C1   59   6.741   8.483   0.051  0.4379  0.1183 -0.5994
    3bbb     H1   60   6.831   8.497  -0.010 -0.1128  1.2522 -1.2039
    3bbb     H2   61   6.783   8.481   0.152  1.8803  1.5533 -1.1288
    3bbb     C2   62   6.692   8.325  -0.130 -0.0610  0.4831 -0.5312
    3bbb     H3   63   6.786   8.367  -0.168 -0.1017  0.3150 -0.8180
    3bbb     H4   64   6.606   8.374  -0.177 -0.0963  0.7310 -0.2123
    3bbb     C3   65   6.574   8.306   0.090 -0.5526  0.3925  0.2488
    3bbb     H5   66   6.573   8.199   0.065  1.6874  0.2167  0.7302
    3bbb     H6   67   6.479   8.338   0.045 -0.2603  2.0772  0.7581
    3bbb     C4   68   6.577   8.319   0.247 -0.1377  0.0005  0.0971
    3bbb     H7   69   6.540   8.419   0.274  0.0015  0.3937 -1.1111
    3bbb     H8   70   6.681   8.324   0.281 -0.2625 -0.2429  0.5219
    3bbb     C5   71   6.631   8.601   0.037  0.5110  0.4105  0.0475
    3bbb     H9   72   6.540   8.582   0.096  0.4340 -1.5863 -0.6186
    3bbb    H10   73   6.604   8.603  -0.069  2.0703  1.1495 -0.3666
    3bbb     C6   74   6.689   8.169  -0.158 -0.2330  0.7330 -0.1564
    3bbb    H11   75   6.595   8.120  -0.130  0.9789 -1.2309  0.6767
    3bbb    H12   76   6.768   8.115  -0.104 -2.3795 -0.1278  2.3657
    3bbb     C7   77   6.509   8.198   0.320  0.1369  0.0959 -0.5936
    3bbb    H13   78   6.539   8.198   0.425  0.0900  1.6218 -0.5524
    3bbb    H14   79   6.542   8.105   0.272 -0.0751 -0.0608 -0.4385
    3bbb     C8   80   6.702   8.140  -0.310 -0.0581  0.4225  0.0780
    3bbb    H15   81   6.786   8.194  -0.355  1.0941  1.3571  3.0961
    3bbb    H16   82   6.610   8.172  -0.360  1.3072  1.0455 -2.1997
    3bbb     C9   83   6.685   8.737   0.079 -0.1416  0.2979  0.0376
    3bbb    H17   84   6.617   8.820   0.053  0.8672  0.8347 -0.9371
    3bbb    H18   85   6.777   8.757   0.023  1.5303 -0.7270  2.2560
    3bbb     O1   86   6.361   8.209   0.300 -0.1587  0.8965  0.2610
    4bbb     N1   87   5.926   8.775   0.162  0.1868  1.0759 -0.1071
    4bbb     C1   88   6.047   8.707   0.102 -0.3411  0.0348  0.2419
    4bbb     H1   89   6.111   8.784   0.057  1.1160 -1.2023  0.1041
    4bbb     H2   90   6.007   8.636   0.029  0.3989  0.1865 -0.3231
    4bbb     C2   91   5.950   8.907   0.225 -0.4548  0.1413 -0.5552
    4bbb     H3   92   6.018   8.900   0.311 -0.3241  1.2652 -0.5635
    4bbb     H4   93   5.853   8.945   0.259 -0.0584  0.6862 -0.0284
    4bbb     C3   94   5.842   8.690   0.254  0.4137 -0.7435  1.0799
    4bbb     H5   95   5.747   8.742   0.275 -0.5849 -1.9642 -0.2009
    4bbb     H6   96   5.889   8.655   0.347  0.2282 -2.7583  0.4690
    4bbb     C4   97   5.787   8.567   0.181  0.1725  0.5405  0.1771
    4bbb     H7   98   5.867   8.498   0.151 -1.1401  0.2538 -3.0806
    4bbb     H8   99   5.726   8.592   0.093 -0.9977  1.4047  1.2099
    4bbb     C5  100   6.129   8.631   0.215 -0.6304  0.1410  0.1743
    4bbb     H9  101   6.062   8.556   0.258  1.1030 -1.3232  0.4514
    4bbb    H10  102   6.146   8.699   0.299  0.4659  0.4109 -0.2418
    4bbb     C6  103   5.994   9.014   0.133 -0.0358  0.0502  0.6472
    4bbb    H11  104   6.091   8.985   0.091  0.1593 -3.1268  2.9587
    4bbb    H12  105   5.995   9.109   0.188 -0.5570  0.5327 -0.1488
    4bbb     C7  106   5.682   8.510   0.273 -0.0765 -0.2637  0.2474
    4bbb    H13  107   5.619   8.592   0.309  0.0026  0.5861 -1.4530
    4bbb    H14  108   5.732   8.464   0.360  1.9119 -0.4683 -0.9403
    4bbb     C8  109   5.885   9.022   0.022  0.7705 -0.4759  0.3335
    4bbb    H15  110   5.802   9.079   0.065  1.2979  0.0666  0.6347
    4bbb    H16  111   5.848   8.924  -0.011 -2.3725  0.9007 -0.6244
    4bbb     C9  112   6.262   8.572   0.166 -0.7395  0.4562  0.2085
    4bbb    H17  113   6.310   8.502   0.235  2.6028  3.1142  0.8813
    4bbb    H18  114   6.332   8.656   0.157 -0.1401 -0.1641 -1.1279
    4bbb     O1  115   5.601   8.408   0.206  0.3701 -0.3880 -0.2455
    5bbb     N1  116   6.753   9.376   0.616  0.7210  0.1164  0.5746
    5bbb     C1  117   6.775   9.247   0.557  0.2037  0.0819  0.4505
    5bbb     H1  118   6.763   9.256   0.448  0.0929 -0.3480  0.4268
    5bbb     H2  119   6.707   9.175   0.604 -1.7994  1.4142 -0.2699
    5bbb     C2  120   6.859   9.480   0.581  0.3319  0.2111 -0.8422
    5bbb     H3  121   6.954   9.453   0.627  0.2311  3.1377  1.4210
    5bbb     H4  122   6.816   9.573   0.622 -1.4796 -0.3992 -1.2748
    5bbb     C3  123   6.623   9.424   0.569 -0.0229 -0.0955  0.0535
    5bbb     H5  124   6.624   9.424   0.459 -1.1839 -2.8663 -0.0221
    5bbb     H6  125   6.610   9.530   0.594 -3.6046  0.1150 -2.0063
    5bbb     C4  126   6.491   9.358   0.611 -0.3946  1.3550  0.0180
    5bbb     H7  127   6.480   9.374   0.719  2.6726  2.2635  0.2854
    5bbb     H8  128   6.493   9.251   0.589  0.3602  1.7653 -2.1479
    5bbb     C5  129   6.916   9.182   0.589  0.2061  0.2016 -0.0752
    5bbb     H9  130   7.001   9.247   0.563  0.1162  0.3620  0.0286
    5bbb    H10  131   6.924   9.088   0.533 -0.5327  0.1525 -0.1139
    5bbb     C6  132   6.892   9.502   0.430 -0.1385  0.2127  0.7703
    5bbb    H11  133   6.801   9.527   0.375  0.7522  0.5401 -0.6204
    5bbb    H12  134   6.935   9.410   0.388 -0.7287  0.4220 -0.3557
    5bbb     C7  135   6.364   9.405   0.530 -0.6411  0.0564 -0.4084
    5bbb    H13  136   6.369   9.379   0.423  1.4549 -2.4101  0.1800
    5bbb    H14  137   6.344   9.512   0.546 -2.4996  0.0778 -2.3474
    5bbb     C8  138   6.998   9.613   0.415 -0.9124  0.2240 -0.3464
    5bbb    H15  139   6.948   9.702   0.455 -2.7750 -1.0036  0.1712
    5bbb    H16  140   7.011   9.646   0.311 -0.6346 -2.3217 -1.1871
    5bbb     C9  141   6.928   9.152   0.745  1.0962  0.2498  0.0847
    5bbb    H17  142   6.877   9.056   0.760  1.8694 -0.0760  0.6740
    5bbb    H18  143   6.881   9.231   0.804  0.2320  0.5219 -0.9352
    5bbb     O1  144   6.252   9.336   0.593 -0.2125  0.4025  0.2833
    6bbb     N1  145   5.443   8.898  -0.028 -0.7078 -0.2338  0.2751
    6bbb     C1  146   5.510   9.007  -0.100 -0.1905 -0.1974 -0.2122
    6bbb     H1  147   5.619   8.992  -0.093  0.3166  2.4527 -1.3618
    6bbb     H2  148   5.482   9.106  -0.063 -0.9324  0.1328 -1.5616
    6bbb     C2  149   5.473   8.757  -0.077 -0.8279  0.0889  0.1581
    6bbb     H3  150   5.552   8.717  -0.013 -0.7106  3.4749  2.4083
    6bbb     H4  151   5.512   8.761  -0.179 -0.2873  0.4432  0.3736
    6bbb     C3  152   5.428   8.923   0.114  0.7182  0.4261 -0.2109
    6bbb     H5  153   5.343   8.864   0.150  1.7821 -0.4962  0.8693
    6bbb     H6  154   5.394   9.026   0.132  0.5919  0.3920 -0.2575
    6bbb     C4  155   5.560   8.885   0.190  0.2654  0.1302  0.4684
    6bbb     H7  156   5.647   8.949   0.170  0.8396 -0.3710  1.2782
    6bbb     H8  157   5.567   8.780   0.160  2.1736 -0.4543  2.6628
    6bbb     C5  158   5.478   9.016  -0.251  0.0685 -0.1892 -0.2746
    6bbb     H9  159   5.378   8.975  -0.271 -0.6045  0.8620  0.8039
    6bbb    H10  160   5.548   8.953  -0.307  2.0797  1.9340 -0.3412
    6bbb     C6  161   5.354   8.661  -0.074  1.4573  0.0421  0.9017
    6bbb    H11  162   5.284   8.697  -0.151  0.9377  0.6380  1.6326
    6bbb    H12  163   5.303   8.666   0.023 -1.6094  3.4341 -0.6077
    6bbb     C7  164   5.531   8.882   0.346 -0.3685 -0.0851  0.1180
    6bbb    H13  165   5.610   8.822   0.393 -0.0234 -0.3760 -0.8062
    6bbb    H14  166   5.428   8.850   0.366 -0.3112 -1.2373 -1.2483
    6bbb     C8  167   5.380   8.514  -0.126  0.4596  0.0287 -0.1588
    6bbb    H15  168   5.286   8.458  -0.123 -0.6583  1.8342  1.5677
    6bbb    H16  169   5.447   8.471  -0.052  1.3663  0.7844 -0.5213
    6bbb     C9  170   5.489   9.156  -0.316 -0.4772  0.4710  0.4091
    6bbb    H17  171   5.584   9.205  -0.293 -0.5987  1.8892 -1.7817
    6bbb    H18  172   5.418   9.225  -0.269  0.4552  1.0736  0.9509
    6bbb     O1  173   5.548   9.015   0.393  0.0316 -0.1975 -0.1860
    7bbb     N1  174   6.715   7.580  -0.549 -0.3619 -0.0691  0.2061
    7bbb     C1  175   6.615   7.486  -0.511  0.0482  0.7402 -0.2227
    7bbb     H1  176   6.638   7.394  -0.566 -2.0384  0.5136 -0.7653
    7bbb     H2  177   6.514   7.514  -0.542 -0.5939 -3.1927 -2.3350
    7bbb     C2  178   6.735   7.587  -0.696  0.0608  0.3683  0.2038
    7bbb     H3  179   6.790   7.495  -0.722 -1.8615 -0.9050  0.4405
    7bbb     H4  180   6.790   7.680  -0.717  1.2854 -0.3005  0.2998
    7bbb     C3  181   6.683   7.719  -0.494  0.0880 -0.0708  0.6326
    7bbb     H5  182   6.650   7.720  -0.390 -2.7081 -1.7638 -0.1377
    7bbb     H6  183   6.597   7.754  -0.552  0.9081  0.0539 -0.5466
    7bbb     C4  184   6.796   7.827  -0.493  0.3835  0.9777  1.1467
    7bbb     H7  185   6.845   7.830  -0.591 -1.3127  1.3044  0.2742
    7bbb     H8  186   6.872   7.803  -0.417  2.0910 -0.4743 -0.8825
    7bbb     C5  187   6.606   7.449  -0.355  0.5760 -0.7599  1.1367
    7bbb     H9  188   6.595   7.545  -0.303  1.4151  0.5238 -0.9039
    7bbb    H10  189   6.705   7.411  -0.328  0.9174  0.6547  1.9460
    7bbb     C6  190   6.606   7.593  -0.783  0.3104  0.2779 -0.1504
    7bbb    H11  191   6.539   7.670  -0.743  1.3338  0.4449  1.3613
    7bbb    H12  192   6.555   7.496  -0.773  0.1382  0.2749 -0.9772
    7bbb     C7  193   6.747   7.970  -0.468  0.0224 -0.5909 -0.2716
    7bbb    H13  194   6.658   8.000  -0.525  0.7982 -0.2440 -1.3367
    7bbb    H14  195   6.826   8.032  -0.512  0.2111 -0.8775 -0.3356
    7bbb     C8  196   6.630   7.613  -0.933 -0.0186 -0.1336 -0.5019
    7bbb    H15  197   6.709   7.543  -0.964 -0.1195 -0.4837  0.0287
    7bbb    H16  198   6.667   7.715  -0.950 -0.7491  0.0330 -1.1475
    7bbb     C9  199   6.497   7.346  -0.326 -0.5486 -0.3861  0.2223
    7bbb    H17  200   6.517   7.264  -0.396 -0.7418  2.3694 -3.3632
    7bbb    H18  201   6.403   7.388  -0.363 -1.2989 -1.9416  0.2827
    7bbb     O1  202   6.719   8.002  -0.333  0.5815  0.2110  0.4873
    8bbb     N1  203   6.692   8.645   0.710 -0.1821 -0.6607  0.9419
    8bbb     C1  204   6.707   8.496   0.718 -0.2839 -0.0944  0.2457
    8bbb     H1  205   6.736   8.462   0.818  0.5943  0.5991  0.2375
    8bbb     H2  206   6.783   8.455   0.649  1.3577  1.3618  1.1288
    8bbb     C2  207   6.817   8.729   0.735  0.3739  0.5251  0.4415
    8bbb     H3  208   6.784   8.834   0.730  1.0300  0.7291  0.3770
    8bbb     H4  209   6.882   8.697   0.653 -1.1408 -2.1017  0.1394
    8bbb     C3  210   6.618   8.697   0.590  0.4710  0.1338 -0.1991
    8bbb     H5  211   6.580   8.797   0.611  0.4643  0.1124 -0.1086
    8bbb     H6  212   6.522   8.646   0.577 -0.5116  1.4927  1.3838
    8bbb     C4  213   6.701   8.690   0.458  0.2539 -0.1696  0.2169
    8bbb     H7  214   6.734   8.590   0.429  2.0894  0.3553  0.3567
    8bbb     H8  215   6.791   8.751   0.472  0.8605 -1.1195  0.4768
    8bbb     C5  216   6.582   8.411   0.682  0.5245  0.7364 -1.3367
    8bbb     H9  217   6.553   8.418   0.576 -0.9581  0.0894 -1.0037
    8bbb    H10  218   6.488   8.446   0.728  0.7582  1.0539 -1.0989
    8bbb     C6  219   6.896   8.699   0.860 -0.2391 -0.1833 -0.4363
    8bbb    H11  220   6.848   8.619   0.918  1.7175 -1.0857  0.0106
    8bbb    H12  221   6.892   8.784   0.929 -2.3807 -2.3913  2.4250
    8bbb     C7  222   6.632   8.743   0.328 -0.1518  0.5463  0.4481
    8bbb    H13  223   6.608   8.850   0.339 -1.6195  0.2776  0.0490
    8bbb    H14  224   6.548   8.683   0.292  2.8266 -2.3466 -2.4313
    8bbb     C8  225   7.041   8.649   0.840  0.0860  0.6786 -1.0094
    8bbb    H15  226   7.093   8.729   0.785 -1.7159  2.4991 -0.2155
    8bbb    H16  227   7.038   8.562   0.773 -0.3089 -2.0305  2.2652
    8bbb     C9  228   6.609   8.257   0.719 -0.1966 -0.0402 -0.0720
    8bbb    H17  229   6.517   8.199   0.709  1.1186 -2.3352  0.4377
    8bbb    H18  230   6.640   8.251   0.824  1.2358 -2.2189 -0.5547
    8bbb     O1  231   6.723   8.729   0.215  0.1142 -0.0293 -0.2126
    9bbb     N1  232   5.967   8.804  -0.427 -0.6528 -0.2922  0.2302
    9bbb     C1  233   5.879   8.689  -0.365  0.3075 -0.2685  0.3405
    9bbb     H1  234   5.871   8.608  -0.438 -2.5742  0.4310 -0.2519
    9bbb     H2  235   5.777   8.728  -0.355  0.7369  1.3170 -0.9504
    9bbb     C2  236   6.081   8.760  -0.516 -0.2992 -0.2331  0.0623
    9bbb     H3  237   6.044   8.694  -0.595  1.7207  0.6633 -1.7305
    9bbb     H4  238   6.162   8.726  -0.451  0.5958 -0.4800 -1.1516
    9bbb     C3  239   5.997   8.916  -0.327 -0.0704  0.5703  0.4435
    9bbb     H5  240   6.042   9.003  -0.377  2.9726 -0.1827  1.6279
    9bbb     H6  241   6.067   8.887  -0.247 -0.2194  2.9808  1.5193
    9bbb     C4  242   5.860   8.974  -0.278  0.6295 -0.3269 -0.3021
    9bbb     H7  243   5.796   8.904  -0.223 -1.3355  1.2543 -0.4520
    9bbb     H8  244   5.801   9.001  -0.366  0.4447  1.6540  0.3868
    9bbb     C5  245   5.925   8.628  -0.227  0.5101 -0.2901 -0.3010
    9bbb     H9  246   5.912   8.712  -0.158 -2.4481 -0.1944 -0.8295
    9bbb    H10  247   6.029   8.592  -0.228  0.5181 -0.2594 -1.3039
    9bbb     C6  248   6.142   8.879  -0.590  0.0421 -0.1973  0.1568
    9bbb    H11  249   6.190   8.945  -0.518 -0.7576 -1.0408  1.4986
    9bbb    H12  250   6.054   8.922  -0.640 -1.5770 -2.6285  0.7517
    9bbb     C7  251   5.870   9.105  -0.199  0.7718 -0.2111 -0.5074
    9bbb    H13  252   5.771   9.124  -0.156  1.1107 -1.0892  0.7184
    9bbb    H14  253   5.903   9.184  -0.268  1.8570  1.2110  1.5285
    9bbb     C8  254   6.246   8.818  -0.693 -0.0103  0.1192 -0.2489
    9bbb    H15  255   6.308   8.743  -0.643  0.0454  0.4841  0.2364
    9bbb    H16  256   6.307   8.903  -0.725 -1.4825  0.4940 -2.2726
    9bbb     C9  257   5.827   8.518  -0.184 -0.3226  0.1811  0.2815
    9bbb    H17  258   5.727   8.563  -0.173 -0.0387  0.3975  2.3767
    9bbb    H18  259   5.862   8.486  -0.085  2.0736  0.4429 -0.4134
    9bbb     O1  260   5.949   9.099  -0.083 -0.3161  0.3326  0.4640
   10bbb     N1  261   6.314   8.266  -0.310 -0.9870 -0.3777  0.0292
   10bbb     C1  262   6.303   8.121  -0.317 -0.2447  0.0555  0.1092
   10bbb     H1  263   6.206   8.083  -0.283 -0.6491  1.1040  0.1573
   10bbb     H2  264   6.383   8.082  -0.253 -1.6701 -0.9752  1.3479
   10bbb     C2  265   6.245   8.345  -0.414 -0.6981  0.6243 -0.7559
   10bbb     H3  266   6.139   8.339  -0.387 -0.4113  0.8087  0.4623
   10bbb     H4  267   6.263   8.294  -0.510 -0.6569  0.0025 -0.4225
   10bbb     C3  268   6.310   8.324  -0.176  0.1203  0.1419  0.6003
   10bbb     H5  269   6.353   8.424  -0.163 -0.4419  0.2115  2.0575
   10bbb     H6  270   6.381   8.262  -0.121  0.0170 -0.3429  0.2076
   10bbb     C4  271   6.171   8.328  -0.106 -0.3575 -0.4596 -0.6594
   10bbb     H7  272   6.128   8.227  -0.116  2.7304 -1.7647 -2.3076
   10bbb     H8  273   6.106   8.403  -0.151  0.6535 -0.0527 -1.4888
   10bbb     C5  274   6.332   8.060  -0.451  1.1173  0.2152 -0.2123
   10bbb     H9  275   6.418   8.111  -0.495  0.3955  1.2423 -0.4748
   10bbb    H10  276   6.244   8.080  -0.513  1.1907  0.2166 -0.3157
   10bbb     C6  277   6.302   8.492  -0.422  0.7803  0.0032  0.1421
   10bbb    H11  278   6.302   8.549  -0.328  0.4283  0.7963 -0.3306
   10bbb    H12  279   6.228   8.543  -0.485 -0.4588 -0.3937  1.2177
   10bbb     C7  280   6.195   8.367   0.043 -0.4507  0.3771 -0.1582
   10bbb    H13  281   6.262   8.291   0.085 -2.5152 -2.3645 -1.4511
   10bbb    H14  282   6.107   8.368   0.108 -0.8126 -1.9239 -0.5304
   10bbb     C8  283   6.445   8.502  -0.481 -0.0027 -0.2855 -0.3773
   10bbb    H15  284   6.524   8.460  -0.418  1.0629  0.5847 -1.0989
   10bbb    H16  285   6.467   8.608  -0.500  3.6085 -1.0526 -1.2047
   10bbb     C9  286   6.374   7.907  -0.429  0.3242  0.0659  0.4383
   10bbb    H17  287   6.483   7.899  -0.419  0.4617 -0.7648 -1.3545
   10bbb    H18  288   6.356   7.854  -0.523  1.9241  1.1722 -0.5575
   10bbb     O1  289   6.253   8.504   0.038  0.3729  0.5317  0.0726
   11bbb     N1  290   7.427   9.261   0.499  0.4091  0.4971  0.2586
   11bbb     C1  291   7.409   9.114   0.474 -0.6538  0.7290 -0.1543
   11bbb     H1  292   7.494   9.050   0.500 -1.6102  0.5237  2.8796
   11bbb     H2  293   7.378   9.098   0.370  2.3456 -1.4954 -0.8509
   11bbb     C2  294   7.493   9.304   0.627  0.5353 -0.5133  0.1939
   11bbb     H3  295   7.415   9.310   0.704  0.1079 -0.2025 -0.2606
   11bbb     H4  296   7.526   9.408   0.624 -0.3456 -0.2418 -0.1178
   11bbb     C3  297   7.310   9.348   0.476 -0.4205  0.3313 -0.2705
   11bbb     H5  298   7.246   9.334   0.564  0.3478 -3.8170 -0.1660
   11bbb     H6  299   7.251   9.317   0.389  1.2589 -1.1149 -0.9636
   11bbb     C4  300   7.339   9.494   0.449  0.4277  0.1170 -0.6218
   11bbb     H7  301   7.425   9.506   0.381 -0.4412  0.8320 -1.6379
   11bbb     H8  302   7.359   9.544   0.544 -1.5500 -1.6804  0.8436
   11bbb     C5  303   7.294   9.062   0.556  0.7759  0.2486  0.4106
   11bbb     H9  304   7.208   9.125   0.527 -0.0480  0.6461  3.3204
   11bbb    H10  305   7.308   9.081   0.663 -3.9045  0.1281  1.2683
   11bbb     C6  306   7.621   9.232   0.670  0.3267  0.1707 -0.9762
   11bbb    H11  307   7.600   9.132   0.709  3.5679  0.5874  2.3780
   11bbb    H12  308   7.659   9.282   0.760 -0.9568 -1.4630  0.5396
   11bbb     C7  309   7.225   9.574   0.393  0.5355 -0.3184  0.3092
   11bbb    H13  310   7.195   9.526   0.299  0.0235 -0.6286  0.6279
   11bbb    H14  311   7.257   9.678   0.379 -2.0988  0.3810 -1.3981
   11bbb     C8  312   7.732   9.235   0.557  0.1886 -0.1354  0.3804
   11bbb    H15  313   7.703   9.179   0.467  1.1880  0.6158 -0.4389
   11bbb    H16  314   7.820   9.179   0.593 -1.2042 -1.9204  1.1644
   11bbb     C9  315   7.254   8.910   0.539  0.7147  0.0762  0.2870
   11bbb    H17  316   7.194   8.903   0.630 -0.0685  2.3093  0.0268
   11bbb    H18  317   7.340   8.843   0.549  0.2513 -0.7158 -0.8722
   11bbb     O1  318   7.120   9.574   0.485  0.7946  1.2899  0.2225
   12bbb     N1  319   7.263   9.094   1.161  0.0019 -0.1200  0.1157
   12bbb     C1  320   7.259   9.038   1.299  0.9241 -0.0862 -0.3798
   12bbb     H1  321   7.215   9.114   1.365 -0.7785 -2.3564  1.3067
   12bbb     H2  322   7.360   9.021   1.340  0.2002 -0.8114  1.1935
   12bbb     C2  323   7.339   9.223   1.155 -0.4931  0.0576  0.1274
   12bbb     H3  324   7.307   9.288   1.237  0.7074 -0.8152  1.3325
   12bbb     H4  325   7.328   9.280   1.062 -1.2596  0.7222  0.6118
   12bbb     C3  326   7.282   8.996   1.055 -0.6434 -0.2569 -0.8601
   12bbb     H5  327   7.237   8.899   1.080  1.4869 -1.0095  0.4082
   12bbb     H6  328   7.390   8.975   1.061 -0.5524  0.1877  4.5485
   12bbb     C4  329   7.238   9.033   0.912 -0.6444  0.0769  0.4793
   12bbb     H7  330   7.261   8.955   0.838 -0.3216  0.3183  0.3243
   12bbb     H8  331   7.301   9.118   0.883 -0.1806 -0.7447 -1.0323
   12bbb     C5  332   7.161   8.920   1.327 -0.5124 -0.0029  0.1765
   12bbb     H9  333   7.145   8.906   1.435 -1.1715 -2.9933 -0.2165
   12bbb    H10  334   7.199   8.823   1.293  1.6903  0.9311 -0.1546
   12bbb     C6  335   7.490   9.217   1.173 -0.4701  0.0987  0.3648
   12bbb    H11  336   7.541   9.189   1.080  1.7783 -0.2435  1.6414
   12bbb    H12  337   7.511   9.137   1.245  1.7347  1.0352  0.8413
   12bbb     C7  338   7.090   9.076   0.902 -0.3331 -0.3031 -0.3705
   12bbb    H13  339   7.068   9.146   0.984  1.3566  0.3387 -0.4335
   12bbb    H14  340   7.025   8.988   0.913  1.3463 -1.4484  0.6944
   12bbb     C8  341   7.541   9.354   1.225 -0.6109 -0.0364  0.0645
   12bbb    H15  342   7.511   9.370   1.329  0.0766  1.0273  0.1090
   12bbb    H16  343   7.492   9.423   1.154  0.3846 -0.9518 -1.5878
   12bbb     C9  344   7.025   8.937   1.256  0.2045 -0.8402  0.1589
   12bbb    H17  345   7.033   8.994   1.163  0.4556 -0.0971  0.6254
   12bbb    H18  346   6.948   8.992   1.311  1.8537  0.5590  1.1695
   12bbb     O1  347   7.065   9.148   0.778  0.4640 -0.2763 -0.5646
   13bbb     N1  348   5.604   8.562  -0.665  0.2246 -0.3710  0.1351
   13bbb     C1  349   5.712   8.653  -0.713  0.1999  0.0789 -0.1522
   13bbb     H1  350   5.720   8.635  -0.821  0.2895 -2.8801  0.2767
   13bbb     H2  351   5.809   8.632  -0.667  1.3718  0.9891 -2.1052
   13bbb     C2  352   5.596   8.431  -0.729 -0.7735 -0.7068 -0.0284
   13bbb     H3  353   5.498   8.385  -0.712 -0.0969 -1.6907  1.4666
   13bbb     H4  354   5.680   8.373  -0.688 -0.4852  1.6484  3.0977
   13bbb     C3  355   5.579   8.569  -0.519  0.6898  0.0822 -0.4841
   13bbb     H5  356   5.586   8.673  -0.484  0.7291 -0.3919  0.9987
   13bbb     H6  357   5.662   8.515  -0.471 -0.1399  1.1433  2.3719
   13bbb     C4  358   5.437   8.506  -0.497 -0.2549  0.1069 -0.0733
   13bbb     H7  359   5.450   8.398  -0.507 -0.4658  0.1089 -0.3764
   13bbb     H8  360   5.371   8.549  -0.573  2.5713  1.7435 -1.7971
   13bbb     C5  361   5.686   8.800  -0.686  0.2009  1.2864 -0.1714
   13bbb     H9  362   5.703   8.819  -0.579 -1.7968 -1.3943  0.7292
   13bbb    H10  363   5.580   8.829  -0.693  0.6746  3.2602  0.1416
   13bbb     C6  364   5.614   8.429  -0.884  0.4353  0.6079 -0.3250
   13bbb    H11  365   5.707   8.466  -0.928  1.0381  0.6355  0.9280
   13bbb    H12  366   5.528   8.490  -0.916  0.3391  0.5087 -0.2566
   13bbb     C7  367   5.360   8.538  -0.364 -0.2432 -0.9980 -0.0131
   13bbb    H13  368   5.274   8.471  -0.360 -2.2828  1.3703 -1.2207
   13bbb    H14  369   5.319   8.639  -0.374  1.1875 -0.5502 -1.9005
   13bbb     C8  370   5.612   8.282  -0.931  0.0939 -0.2649 -0.4082
   13bbb    H15  371   5.525   8.242  -0.877 -0.4393  0.3176 -0.8223
   13bbb    H16  372   5.700   8.243  -0.878  0.1322  2.3220  1.6188
   13bbb     C9  373   5.765   8.889  -0.785 -0.1092  0.6921  0.6362
   13bbb    H17  374   5.863   8.839  -0.794  0.5766  1.2907  3.6737
   13bbb    H18  375   5.785   8.988  -0.743 -1.5986  0.1039  2.9364
   13bbb     O1  376   5.442   8.515  -0.257 -0.0674  0.1275 -0.3581
   14bbb     N1  377   5.310   9.173  -0.848  0.4457  0.3433 -0.4146
   14bbb     C1  378   5.360   9.033  -0.862 -0.4263  0.6543  0.2212
   14bbb     H1  379   5.457   9.025  -0.813  0.7894  1.1937 -1.9755
   14bbb     H2  380   5.379   9.014  -0.968 -0.5257 -0.9304  0.4633
   14bbb     C2  381   5.357   9.271  -0.953 -0.1378  0.2995 -0.9570
   14bbb     H3  382   5.465   9.284  -0.967  0.2091  0.5582  1.4294
   14bbb     H4  383   5.324   9.371  -0.920 -0.0193  0.0365  0.0125
   14bbb     C3  384   5.335   9.225  -0.707  0.9729  0.3788 -0.1752
   14bbb     H5  385   5.310   9.143  -0.639  0.3760 -1.3299 -2.3426
   14bbb     H6  386   5.271   9.309  -0.678 -0.5459 -0.8931  0.2404
   14bbb     C4  387   5.478   9.268  -0.684  0.3650 -0.8199  0.3353
   14bbb     H7  388   5.512   9.353  -0.744 -0.7818 -0.0922  0.6824
   14bbb     H8  389   5.544   9.188  -0.719 -0.6306 -1.1359 -0.8774
   14bbb     C5  390   5.271   8.934  -0.796  0.3021  0.4426  0.0887
   14bbb     H9  391   5.169   8.964  -0.820 -0.3144 -1.5446  0.0328
   14bbb    H10  392   5.287   8.949  -0.688 -0.8758  4.1583 -0.1085
   14bbb     C6  393   5.305   9.247  -1.093 -0.2813  0.2959 -0.3995
   14bbb    H11  394   5.351   9.152  -1.122  0.6203  0.5424  0.1965
   14bbb    H12  395   5.329   9.329  -1.162  0.2585  0.8162  0.4052
   14bbb     C7  396   5.499   9.288  -0.535  0.3908 -0.2802  0.4974
   14bbb    H13  397   5.432   9.365  -0.494  1.1397 -1.4063  4.3099
   14bbb    H14  398   5.601   9.314  -0.507  0.2250 -1.2240  2.1624
   14bbb     C8  399   5.156   9.227  -1.105  0.6190 -0.1811  0.0509
   14bbb    H15  400   5.101   9.308  -1.056  1.2507  1.6541 -2.1103
   14bbb    H16  401   5.138   9.126  -1.065  1.2700 -0.0493  0.6986
   14bbb     C9  402   5.294   8.789  -0.843  0.1952  0.2416  0.3962
   14bbb    H17  403   5.353   8.722  -0.781  0.8627  1.9427  1.6736
   14bbb    H18  404   5.360   8.796  -0.931  0.3543  1.6844  0.6046
   14bbb     O1  405   5.467   9.159  -0.459  0.7534  0.3569 -0.2900
   15bbb     N1  406   6.449   7.800  -1.404 -0.1486  0.7066  0.0674
   15bbb     C1  407   6.427   7.935  -1.333 -0.2946 -0.8665 -0.2504
   15bbb     H1  408   6.498   8.002  -1.385  0.9413 -1.6477  0.3799
   15bbb     H2  409   6.468   7.942  -1.231 -3.4754  1.5787  1.0233
   15bbb     C2  410   6.595   7.780  -1.436  0.3637  0.6448  0.0833
   15bbb     H3  411   6.654   7.791  -1.344  0.5709 -1.6204  0.2941
   15bbb     H4  412   6.628   7.862  -1.500 -1.4434  0.1743 -1.5589
   15bbb     C3  413   6.371   7.691  -1.341 -0.3898 -0.3559  0.9110
   15bbb     H5  414   6.413   7.601  -1.389 -0.7781 -0.2913  0.4438
   15bbb     H6  415   6.265   7.700  -1.368  0.0953 -1.0915 -1.5306
   15bbb     C4  416   6.381   7.667  -1.185 -0.1960 -1.1075  0.0862
   15bbb     H7  417   6.311   7.584  -1.167  0.3075 -1.7354 -0.7745
   15bbb     H8  418   6.349   7.755  -1.128 -0.0263 -0.8567 -0.2033
   15bbb     C5  419   6.288   8.003  -1.344  0.2937  0.1908  0.5953
   15bbb     H9  420   6.206   7.939  -1.309 -0.0081 -0.6748 -1.5421
   15bbb    H10  421   6.264   8.010  -1.451 -4.3549  0.7829  1.4304
   15bbb     C6  422   6.636   7.646  -1.512  1.2659 -0.3398  0.5853
   15bbb    H11  423   6.577   7.644  -1.605  3.9897 -1.2146 -1.2434
   15bbb    H12  424   6.606   7.562  -1.448  1.0647  1.4916  3.0462
   15bbb     C7  425   6.521   7.633  -1.145 -0.0226 -0.1398  0.4931
   15bbb    H13  426   6.579   7.726  -1.155  0.6877 -0.5874  0.3366
   15bbb    H14  427   6.564   7.550  -1.204  0.0767 -0.3583  0.8688
   15bbb     C8  428   6.779   7.633  -1.552  0.5621 -0.1529  0.5268
   15bbb    H15  429   6.769   7.591  -1.652 -0.5457  0.8108  0.2061
   15bbb    H16  430   6.821   7.553  -1.490 -1.6354 -1.3276  0.6065
   15bbb     C9  431   6.278   8.135  -1.279  0.7271 -0.8425  0.3024
   15bbb    H17  432   6.315   8.140  -1.176  1.3322 -0.6503  0.0815
   15bbb    H18  433   6.171   8.160  -1.282  1.1302  0.9487 -0.5233
   15bbb     O1  434   6.512   7.594  -1.012  0.5212 -0.3694  0.2581
   16bbb     N1  435   6.665   7.358   0.217  0.0193  0.1252  0.5674
   16bbb     C1  436   6.651   7.213   0.247  0.2904  0.4708  0.4528
   16bbb     H1  437   6.556   7.174   0.206  2.3880 -2.1624 -2.4283
   16bbb     H2  438   6.652   7.195   0.355 -1.3995  0.3648  0.4901
   16bbb     C2  439   6.787   7.422   0.261 -1.1487  0.5806  0.2366
   16bbb     H3  440   6.855   7.435   0.175 -1.5755 -3.2111 -0.8873
   16bbb     H4  441   6.833   7.356   0.335 -1.1296 -2.4741 -2.2555
   16bbb     C3  442   6.628   7.392   0.076  0.4126  0.3219 -0.6807
   16bbb     H5  443   6.689   7.339   0.001 -0.2988  1.4979 -2.1432
   16bbb     H6  444   6.655   7.497   0.065  0.1310  0.6460  1.3932
   16bbb     C4  445   6.480   7.368   0.042  0.0095 -0.0320 -0.7645
   16bbb     H7  446   6.410   7.427   0.103  2.5935  2.7962 -0.3038
   16bbb     H8  447   6.454   7.263   0.057  1.1238 -0.2551 -0.3626
   16bbb     C5  448   6.769   7.131   0.179  0.3145 -0.5387  0.1039
   16bbb     H9  449   6.866   7.150   0.225 -0.2560  3.4269  0.0174
   16bbb    H10  450   6.774   7.152   0.071  1.5908 -2.0611 -0.1648
   16bbb     C6  451   6.763   7.564   0.318 -0.1850  0.0992 -0.0439
   16bbb    H11  452   6.682   7.564   0.391  0.0826 -0.5553  0.2627
   16bbb    H12  453   6.737   7.630   0.235  0.6729  1.2701  0.5815
   16bbb     C7  454   6.440   7.400  -0.101 -0.4658  0.5280  0.8036
   16bbb    H13  455   6.462   7.507  -0.117 -1.5125  0.6174 -0.1215
   16bbb    H14  456   6.333   7.382  -0.114 -0.3443 -2.0411  2.6306
   16bbb     C8  457   6.894   7.613   0.393  0.1941 -0.0333  0.2596
   16bbb    H15  458   6.911   7.573   0.494 -0.5785  0.5710  0.6410
   16bbb    H16  459   6.893   7.721   0.410  0.7062  0.3081 -1.6387
   16bbb     C9  460   6.743   6.979   0.186  0.2305 -0.0258 -0.2082
   16bbb    H17  461   6.704   6.948   0.284 -1.9107  0.1047 -0.9535
   16bbb    H18  462   6.839   6.929   0.172  0.6379  0.8993 -0.8429
   16bbb     O1  463   6.511   7.307  -0.186 -0.4898  0.5144 -0.2779
   17bbb     N1  464   7.576   8.650   0.782  0.2100 -0.2079 -0.4379
   17bbb     C1  465   7.702   8.577   0.752  0.1741  0.8468  0.3602
   17bbb     H1  466   7.766   8.581   0.841  1.2277 -0.9143 -0.2685
   17bbb     H2  467   7.756   8.624   0.669 -2.3183  2.1340 -0.6391
   17bbb     C2  468   7.599   8.792   0.815  0.1862  0.1959  0.0490
   17bbb     H3  469   7.505   8.849   0.810 -0.6658 -1.1797 -0.1551
   17bbb     H4  470   7.657   8.837   0.733 -0.7302  0.9182 -0.2142
   17bbb     C3  471   7.477   8.582   0.869 -1.1949 -0.2594 -0.0430
   17bbb     H5  472   7.521   8.564   0.968  0.1601  1.7159 -0.2297
   17bbb     H6  473   7.454   8.483   0.829 -1.3667 -0.0843 -0.3795
   17bbb     C4  474   7.345   8.659   0.883  0.2660 -0.4770  0.4440
   17bbb     H7  475   7.303   8.683   0.784  0.4707 -0.5747  0.3316
   17bbb     H8  476   7.355   8.752   0.941  1.3558  0.5550 -1.3069
   17bbb     C5  477   7.681   8.428   0.710  0.1207  0.4040 -0.3798
   17bbb     H9  478   7.633   8.378   0.795  1.9681  2.3234  1.9325
   17bbb    H10  479   7.780   8.380   0.705 -0.0874 -0.1618  0.6817
   17bbb     C6  480   7.664   8.823   0.956  0.5115  0.5054  0.9518
   17bbb    H11  481   7.749   8.756   0.972  0.4727  0.3913  0.6785
   17bbb    H12  482   7.587   8.801   1.032 -0.0256 -0.6411  0.1127
   17bbb     C7  483   7.236   8.563   0.946 -1.0643  0.2754  0.0662
   17bbb    H13  484   7.269   8.526   1.044 -1.2474  1.2519  0.5059
   17bbb    H14  485   7.223   8.482   0.872  1.7310  0.7055 -1.0170
   17bbb     C8  486   7.717   8.966   0.976  1.0855 -0.0615 -0.5812
   17bbb    H15  487   7.745   8.985   1.080  0.5085 -2.6092  0.1077
   17bbb    H16  488   7.638   9.040   0.957  0.9853  0.6030  2.0029
   17bbb     C9  489   7.591   8.414   0.588 -0.6687  0.4444  0.4043
   17bbb    H17  490   7.504   8.480   0.603 -1.8127 -0.8436 -0.3222
   17bbb    H18  491   7.551   8.313   0.577 -0.3703  0.1734  1.6450
   17bbb     O1  492   7.108   8.623   0.963  0.0272  0.1597 -0.4191
   18bbb     N1  493   6.873   7.982   0.299  0.8387 -0.3962  0.1131
   18bbb     C1  494   7.010   8.035   0.277 -0.3012  0.1304  0.1753
   18bbb     H1  495   7.063   7.961   0.215  0.6303 -0.8924  2.0992
   18bbb     H2  496   7.065   8.047   0.371 -3.1162 -1.1731  2.1222
   18bbb     C2  497   6.789   7.943   0.180 -0.0049 -0.1586  0.2142
   18bbb     H3  498   6.741   8.032   0.138  0.5466  0.6743  1.3059
   18bbb     H4  499   6.702   7.890   0.221 -0.5750 -0.2226 -1.0321
   18bbb     C3  500   6.799   8.048   0.407  0.5801 -0.7830 -0.3578
   18bbb     H5  501   6.698   8.007   0.406  0.6184 -0.9397  1.0789
   18bbb     H6  502   6.804   8.156   0.392 -1.4049 -0.6905 -0.5656
   18bbb     C4  503   6.843   8.020   0.548 -0.0354  0.2122 -1.0108
   18bbb     H7  504   6.936   8.069   0.578 -0.5226  0.7831 -0.3843
   18bbb     H8  505   6.855   7.912   0.556 -1.9680 -0.0361 -0.8639
   18bbb     C5  506   7.012   8.174   0.204 -0.0761  0.4126  0.0460
   18bbb     H9  507   6.913   8.208   0.169  0.5459  1.5233 -0.6850
   18bbb    H10  508   7.076   8.154   0.117 -1.7289 -0.2415 -1.0830
   18bbb     C6  509   6.853   7.851   0.075 -0.4512  0.4116 -0.2488
   18bbb    H11  510   6.928   7.782   0.115  0.4359  1.6497  0.2931
   18bbb    H12  511   6.917   7.916   0.014  0.9544 -0.1751  0.5446
   18bbb     C7  512   6.726   8.058   0.638  0.5523  0.6115  0.2651
   18bbb    H13  513   6.757   8.047   0.743 -0.1605  2.0519  0.6471
   18bbb    H14  514   6.637   7.997   0.618  0.4748  0.8124 -0.0067
   18bbb     C8  515   6.753   7.776  -0.017 -0.4199  0.3613  0.1799
   18bbb    H15  516   6.677   7.845  -0.054 -0.2516  0.4102 -0.0729
   18bbb    H16  517   6.703   7.699   0.045  2.5650 -1.3858  0.6121
   18bbb     C9  518   7.062   8.288   0.301 -0.2620 -0.3593 -0.1771
   18bbb    H17  519   6.999   8.290   0.391 -1.2328 -0.8317 -0.8192
   18bbb    H18  520   7.050   8.384   0.249 -0.3510 -0.5004 -0.4189
   18bbb     O1  521   6.698   8.200   0.624 -0.5867 -0.2652  0.0465
   19bbb     N1  522   6.052   8.665  -1.218  0.4118 -0.4773 -0.6952
   19bbb     C1  523   6.031   8.760  -1.335 -0.2311  0.4910  0.3992
   19bbb     H1  524   5.974   8.848  -1.303  1.8277  1.1300  2.6231
   19bbb     H2  525   5.975   8.706  -1.412 -1.1664  1.7695  0.1559
   19bbb     C2  526   5.929   8.594  -1.180  0.3632 -0.3084 -0.4908
   19bbb     H3  527   5.860   8.669  -1.140  1.2383  0.6023 -0.6396
   19bbb     H4  528   5.944   8.526  -1.096 -0.9020  0.3839  0.3201
   19bbb     C3  529   6.135   8.724  -1.105  0.1975 -0.0266  0.2194
   19bbb     H5  530   6.082   8.809  -1.059  2.0681  0.1919  2.1254
   19bbb     H6  531   6.232   8.753  -1.146  0.4268 -0.3788  0.5030
   19bbb     C4  532   6.173   8.619  -0.998 -0.3316 -0.0956 -0.1079
   19bbb     H7  533   6.220   8.536  -1.052 -0.9679  0.2242 -1.1813
   19bbb     H8  534   6.087   8.576  -0.945  1.3248 -0.7727  2.2696
   19bbb     C5  535   6.154   8.824  -1.398 -0.5107 -0.4505  0.4826
   19bbb     H9  536   6.198   8.897  -1.328  1.6063 -0.6350 -0.5630
   19bbb    H10  537   6.114   8.892  -1.474 -1.1686 -0.4498  0.8194
   19bbb     C6  538   5.860   8.516  -1.296  0.7317  0.2733 -0.2457
   19bbb    H11  539   5.825   8.580  -1.378 -0.7276 -1.0166 -0.6814
   19bbb    H12  540   5.773   8.465  -1.251  1.7192  0.1814  1.6416
   19bbb     C7  541   6.256   8.676  -0.881  0.7900  0.1416  0.4944
   19bbb    H13  542   6.342   8.734  -0.917  0.8354  1.2637  2.3278
   19bbb    H14  543   6.308   8.600  -0.822  3.4617  0.9329 -0.7099
   19bbb     C8  544   5.952   8.412  -1.377 -0.7870 -0.1609 -0.4767
   19bbb    H15  545   6.021   8.357  -1.313  0.0706 -2.1048 -2.9057
   19bbb    H16  546   6.015   8.467  -1.448 -0.8960  1.7917  0.8737
   19bbb     C9  547   6.252   8.717  -1.445 -0.1259  0.2403 -0.6663
   19bbb    H17  548   6.199   8.634  -1.494  1.3843 -2.2739  1.6226
   19bbb    H18  549   6.292   8.670  -1.354 -1.5208  0.0644 -0.1175
   19bbb     O1  550   6.175   8.756  -0.801  0.3063 -0.6306 -0.4704
   20bbb     N1  551   5.863   8.060  -0.536  0.7419  0.3188 -0.6023
   20bbb     C1  552   5.844   8.134  -0.662 -0.3749 -0.5105  0.4307
   20bbb     H1  553   5.739   8.164  -0.661 -0.3982 -0.5354  1.7584
   20bbb     H2  554   5.872   8.064  -0.741  0.3195 -0.8856  0.9903
   20bbb     C2  555   5.961   7.950  -0.549  0.1025 -0.0878  0.7627
   20bbb     H3  556   6.053   8.008  -0.564  1.5232 -1.6770  2.8444
   20bbb     H4  557   5.935   7.896  -0.641  3.5428 -1.0762  0.2159
   20bbb     C3  558   5.850   8.134  -0.404 -0.8931 -0.1638  0.0954
   20bbb     H5  559   5.938   8.199  -0.392  0.2230 -1.3136 -1.4584
   20bbb     H6  560   5.862   8.065  -0.320 -0.4303  0.3865  0.4845
   20bbb     C4  561   5.728   8.221  -0.388 -0.0343  0.3942  0.4395
   20bbb     H7  562   5.637   8.160  -0.388 -0.4670  0.9907 -0.9119
   20bbb     H8  563   5.727   8.285  -0.477 -0.3372  2.0519  1.5935
   20bbb     C5  564   5.940   8.256  -0.675 -0.3903 -0.1061  0.2682
   20bbb     H9  565   6.035   8.221  -0.630  0.1284  0.7856 -0.1118
   20bbb    H10  566   5.903   8.341  -0.617  1.2383  0.1590  0.9961
   20bbb     C6  567   5.981   7.851  -0.432  0.3171  0.6745  0.4175
   20bbb    H11  568   6.024   7.902  -0.345  0.1574 -0.7752  1.3747
   20bbb    H12  569   6.058   7.783  -0.473 -0.1756  1.0886 -1.2847
   20bbb     C7  570   5.742   8.303  -0.262 -0.0529 -0.0815  0.1659
   20bbb    H13  571   5.781   8.243  -0.179  1.5286  0.8994  0.1794
   20bbb    H14  572   5.646   8.347  -0.232  0.2175 -0.2705  1.3539
   20bbb     C8  573   5.848   7.769  -0.401  0.6350  0.1728  0.5216
   20bbb    H15  574   5.763   7.837  -0.388 -0.2981 -0.6635 -0.8915
   20bbb    H16  575   5.851   7.698  -0.317 -0.7041 -1.0588 -0.4270
   20bbb     C9  576   5.979   8.308  -0.816 -0.3487  0.3546 -0.2606
   20bbb    H17  577   6.073   8.362  -0.805 -0.9334  1.3048  0.2061
   20bbb    H18  578   5.910   8.390  -0.840  0.8946  2.0442  1.6842
   20bbb     O1  579   5.827   8.409  -0.277 -0.1441  0.0491  0.0070
   21bbb     N1  580   6.535   8.102  -0.854 -0.5953  0.2141 -0.1549
   21bbb     C1  581   6.444   7.987  -0.824  0.1311  0.3911  0.4790
   21bbb     H1  582   6.482   7.951  -0.727 -0.0653  1.8904  1.1266
   21bbb     H2  583   6.457   7.907  -0.898  0.5086  0.3883  0.5429
   21bbb     C2  584   6.671   8.063  -0.914 -0.8210  0.5183  0.1495
   21bbb     H3  585   6.726   7.994  -0.849  1.7248  2.2617 -0.0189
   21bbb     H4  586   6.724   8.157  -0.934  0.5400  0.3014  2.3708
   21bbb     C3  587   6.536   8.205  -0.742  0.1772 -0.0228 -0.4975
   21bbb     H5  588   6.601   8.169  -0.661 -0.7425 -3.4375 -1.1111
   21bbb     H6  589   6.433   8.222  -0.708 -0.2893 -0.6518 -1.5190
   21bbb     C4  590   6.588   8.342  -0.786  0.1158 -0.0077 -0.3565
   21bbb     H7  591   6.520   8.375  -0.866 -0.7903  0.5197  0.6043
   21bbb     H8  592   6.688   8.346  -0.830 -0.2884 -0.6249 -1.3812
   21bbb     C5  593   6.295   8.033  -0.824 -0.4090 -0.3436  0.4252
   21bbb     H9  594   6.287   8.106  -0.905 -1.4869 -0.1733  0.6609
   21bbb    H10  595   6.273   8.086  -0.730  0.8679 -0.6699  0.9285
   21bbb     C6  596   6.662   7.989  -1.047  0.4115  0.1132  0.2201
   21bbb    H11  597   6.608   8.046  -1.124 -1.2380 -0.3300  0.9934
   21bbb    H12  598   6.605   7.895  -1.036  1.1107 -0.3021  0.3246
   21bbb     C7  599   6.579   8.440  -0.667  0.0013 -0.2461 -0.0303
   21bbb    H13  600   6.603   8.542  -0.697  0.7669 -1.0353 -2.3259
   21bbb    H14  601   6.651   8.405  -0.591 -0.7066 -1.8683 -0.0647
   21bbb     C8  602   6.799   7.967  -1.115  0.4028  1.1003 -0.2090
   21bbb    H15  603   6.776   7.927  -1.215  0.3167  1.8461 -0.4961
   21bbb    H16  604   6.848   7.888  -1.056 -0.0923  2.5749  2.2991
   21bbb     C9  605   6.192   7.924  -0.872  1.0472 -0.4910 -0.2423
   21bbb    H17  606   6.225   7.879  -0.966 -1.5870 -1.1274 -0.9443
   21bbb    H18  607   6.092   7.965  -0.893  0.1601  0.3742  4.3749
   21bbb     O1  608   6.449   8.435  -0.615  0.7024 -0.7660  0.4358
   22bbb     N1  609   6.232   7.788   0.087 -0.1107  0.1340 -0.2496
   22bbb     C1  610   6.185   7.930   0.125  0.3666  0.5174 -0.8080
   22bbb     H1  611   6.266   8.004   0.123  0.8674 -0.0348 -2.2089
   22bbb     H2  612   6.149   7.927   0.229 -0.8554  0.0784 -1.2250
   22bbb     C2  613   6.282   7.719   0.208 -0.5156 -0.4920 -0.6423
   22bbb     H3  614   6.280   7.612   0.184 -0.2908 -0.7450  0.4198
   22bbb     H4  615   6.201   7.735   0.280 -1.0554  0.7568 -1.4764
   22bbb     C3  616   6.320   7.784  -0.029  0.3377 -0.0958 -0.3649
   22bbb     H5  617   6.411   7.725  -0.011  1.1432  1.2366  0.1025
   22bbb     H6  618   6.347   7.888  -0.053 -2.2604  0.3485 -1.7247
   22bbb     C4  619   6.255   7.719  -0.150 -0.3368  0.4450 -0.3590
   22bbb     H7  620   6.156   7.763  -0.168 -0.0151  1.0859 -0.6063
   22bbb     H8  621   6.227   7.615  -0.128 -1.2410  1.1271  1.9762
   22bbb     C5  622   6.082   7.993   0.034  0.3044  0.6369  0.2433
   22bbb     H9  623   6.122   7.993  -0.069 -0.8352 -1.7654 -0.2723
   22bbb    H10  624   6.077   8.099   0.061  1.2739  0.6988  0.2300
   22bbb     C6  625   6.428   7.764   0.264 -0.0770  0.1398  0.6591
   22bbb    H11  626   6.439   7.872   0.247  1.2786 -0.1762 -0.7278
   22bbb    H12  627   6.511   7.721   0.208  0.5261  1.6031  0.3628
   22bbb     C7  628   6.337   7.728  -0.279 -0.1433 -0.2145  0.1796
   22bbb    H13  629   6.286   7.663  -0.351  0.5748  0.4123 -0.9257
   22bbb    H14  630   6.442   7.699  -0.268 -0.1108 -0.4952 -0.7782
   22bbb     C8  631   6.452   7.727   0.409 -0.0385  0.0728  0.1987
   22bbb    H15  632   6.556   7.740   0.440  1.0027 -0.2983 -2.8101
   22bbb    H16  633   6.423   7.621   0.418 -1.9681  0.5341  0.0324
   22bbb     C9  634   5.944   7.926   0.033  0.0113 -0.3492  0.2987
   22bbb    H17  635   5.925   7.897   0.138  1.3634 -1.6899  0.2082
   22bbb    H18  636   5.935   7.840  -0.035 -3.5481  0.3527 -0.3486
   22bbb     O1  637   6.311   7.866  -0.312  0.4152  0.1422  0.7695
   23ccc     C3  638   7.861   9.433   0.607 -0.2144 -0.3789 -0.3571
   23ccc     H5  639   7.840   9.421   0.714  0.2373 -2.5499 -0.4743
   23ccc     H6  640   7.960   9.386   0.600  0.5173  1.0723 -0.2165
   23ccc     C2  641   7.883   9.579   0.572  0.4368 -0.9569  0.0882
   23ccc     H3  642   7.969   9.611   0.630 -0.2399 -0.9593  1.1196
   23ccc     H4  643   7.789   9.634   0.587  0.8011  0.2252 -1.6869
   23ccc     C1  644   7.927   9.596   0.424 -0.2242  0.4505 -0.0461
   23ccc     H1  645   7.957   9.699   0.401  1.4540 -0.6504 -3.3124
   23ccc     H2  646   7.841   9.570   0.361 -1.2454  0.6943  1.1924
   23ccc     N1  647   8.041   9.507   0.385 -0.6529  0.0963 -0.0744
   23ccc     C4  648   8.173   9.552   0.427  0.4777  0.4681  0.3146
   23ccc     H7  649   8.157   9.599   0.525 -1.9598 -0.4887  0.4560
   23ccc     H8  650   8.223   9.624   0.360 -0.9041  0.9663 -0.2253
   23ccc     C5  651   8.264   9.443   0.473  0.6164  0.1169  0.3926
   23ccc     H9  652   8.210   9.366   0.529  2.6135 -2.9478 -1.5564
   23ccc    H10  653   8.317   9.409   0.383  0.5669 -0.2451  0.4980
   23ccc     C6  654   8.373   9.495   0.564 -0.4990  0.6312  0.2432
   23ccc     O2  655   8.343   9.541   0.669  0.2495  0.0179  0.1163
   23ccc     O3  656   8.481   9.527   0.518 -0.6308  0.3484 -0.2244
   23ccc     C7  657   8.023   9.452   0.253  0.5596 -0.1829 -0.5197
   23ccc    H11  658   7.983   9.528   0.184 -0.3006 -0.9904 -0.9287
   23ccc    H12  659   8.122   9.432   0.211  1.0017 -0.2286  0.5076
   23ccc     C8  660   7.946   9.322   0.254 -1.0953  0.5684 -0.0326
   23ccc    H13  661   8.001   9.254   0.320 -2.2322 -2.0217 -1.5974
   23ccc    H14  662   7.844   9.339   0.291 -0.3619 -0.6183  2.8132
   23ccc     C9  663   7.934   9.254   0.120  0.0378 -0.4894  0.0659
   23ccc     O4  664   8.021   9.184   0.068 -0.1049 -0.4000  0.0154
   23ccc     O5  665   7.826   9.235   0.070  0.4692  0.2736 -0.5890
   23ccc     O1  666   7.773   9.369   0.514 -0.6116  0.3920  0.0077
   24ccc     C3  667   7.118   8.762   0.413 -0.7185  0.4947 -0.0806
   24ccc     H5  668   7.193   8.687   0.443 -1.9321 -1.5969 -1.9827
   24ccc     H6  669   7.042   8.769   0.491  0.1036 -0.4523  0.8363
   24ccc     C2  670   7.058   8.741   0.266  0.0979 -0.6860 -0.5094
   24ccc     H3  671   7.012   8.834   0.230 -1.1644 -1.3614 -0.7140
   24ccc     H4  672   6.975   8.669   0.272 -1.5512  0.9925 -1.8839
   24ccc     C1  673   7.163   8.702   0.165  0.3178 -0.0591 -0.4795
   24ccc     H1  674   7.222   8.627   0.219  1.3441  0.5136 -0.7682
   24ccc     H2  675   7.218   8.793   0.137 -0.5498  0.1813 -1.4571
   24ccc     N1  676   7.109   8.642   0.049 -0.1594 -0.1204  0.0456
   24ccc     C4  677   7.044   8.729  -0.049 -0.0423 -0.2256 -0.0985
   24ccc     H7  678   7.005   8.816   0.005 -1.2357  1.2273 -3.0456
   24ccc     H8  679   6.948   8.689  -0.086 -0.8040  1.1385  0.3397
   24ccc     C5  680   7.150   8.786  -0.152 -0.4138 -0.0625 -0.1520
   24ccc     H9  681   7.127   8.891  -0.171  2.3746  0.7475  0.4720
   24ccc    H10  682   7.247   8.786  -0.101 -0.3611  2.6950 -0.1473
   24ccc     C6  683   7.147   8.704  -0.279 -0.6412  0.0250 -0.9076
   24ccc     O2  684   7.049   8.713  -0.345  0.5681  0.4898 -0.4362
   24ccc     O3  685   7.247   8.645  -0.319  0.3680 -0.1861  0.1862
   24ccc     C7  686   7.186   8.526   0.003 -0.4932 -0.3353 -0.2390
   24ccc    H11  687   7.264   8.555  -0.068 -0.7650  0.3946 -0.2491
   24ccc    H12  688   7.237   8.477   0.087 -0.0106 -0.2367 -0.4713
   24ccc     C8  689   7.104   8.415  -0.068 -0.0963  0.4342 -0.2068
   24ccc    H13  690   7.037   8.372   0.007 -2.4957  0.7837 -2.0123
   24ccc    H14  691   7.046   8.462  -0.149 -1.6836  0.6950  1.0435
   24ccc     C9  692   7.198   8.315  -0.131  0.2121  0.0483  0.4662
   24ccc     O4  693   7.221   8.301  -0.249  0.0169 -0.1638  0.1792
   24ccc     O5  694   7.261   8.234  -0.063  0.5100  0.0535 -0.3506
   24ccc     O1  695   7.185   8.887   0.417 -0.4877  0.2318  0.2841
   25ccc     C3  696   7.733   9.485   1.280  0.4325 -0.0576  0.4388
   25ccc     H5  697   7.709   9.564   1.207  0.2125  0.6080  1.2170
   25ccc     H6  698   7.682   9.501   1.376  0.5184 -1.6527  0.7787
   25ccc     C2  699   7.885   9.478   1.298 -0.8309 -0.1869 -1.2229
   25ccc     H3  700   7.921   9.402   1.369  0.8218 -0.1143 -1.9417
   25ccc     H4  701   7.922   9.569   1.346 -0.3172 -0.8475 -0.3419
   25ccc     C1  702   7.952   9.456   1.159 -0.1289  0.1535 -0.0422
   25ccc     H1  703   7.958   9.555   1.110  1.3486 -0.7668 -1.8459
   25ccc     H2  704   7.900   9.386   1.092 -0.8921  0.0577  0.6413
   25ccc     N1  705   8.093   9.406   1.165 -0.0457  0.6709  0.1704
   25ccc     C4  706   8.111   9.267   1.209 -0.3318  0.3392 -0.0299
   25ccc     H7  707   8.107   9.193   1.128  0.5850 -1.3360  1.3845
   25ccc     H8  708   8.025   9.242   1.272  0.3602 -0.5961  0.5647
   25ccc     C5  709   8.247   9.241   1.276  0.0304  0.5088 -0.1983
   25ccc     H9  710   8.288   9.336   1.312 -0.1343  0.9392 -1.1151
   25ccc    H10  711   8.226   9.181   1.366  0.5722 -0.8636 -0.9549
   25ccc     C6  712   8.346   9.179   1.185 -0.3024 -0.3483 -0.0840
   25ccc     O2  713   8.451   9.233   1.150 -0.0014 -0.3043  0.0295
   25ccc     O3  714   8.339   9.060   1.161 -0.5612  0.3406  0.1762
   25ccc     C7  715   8.185   9.455   1.060  0.0761 -0.6404  0.6526
   25ccc    H11  716   8.257   9.379   1.029  0.6407  0.0618  0.2311
   25ccc    H12  717   8.135   9.481   0.966  1.6535 -1.5250 -0.4641
   25ccc     C8  718   8.250   9.583   1.104 -0.0977  0.5997 -0.3555
   25ccc    H13  719   8.182   9.669   1.089 -1.5698 -0.6353 -1.0270
   25ccc    H14  720   8.280   9.576   1.209  0.4164 -3.9907 -0.6367
   25ccc     C9  721   8.371   9.609   1.022  0.6299  0.0075  0.1835
   25ccc     O4  722   8.358   9.656   0.910 -0.1420 -0.2156  0.2508
   25ccc     O5  723   8.470   9.545   1.040  0.0613 -0.6577 -0.5131
   25ccc     O1  724   7.683   9.360   1.231 -0.2957  0.2251  0.2305
   26ccc     C3  725   6.893   8.759   1.346  0.2556 -0.2910 -0.7086
   26ccc     H5  726   6.940   8.795   1.438  1.0278 -1.8787 -0.4365
   26ccc     H6  727   6.790   8.796   1.355  0.8074  0.9031  1.0261
   26ccc     C2  728   6.904   8.604   1.356 -0.3741 -0.4665 -0.1166
   26ccc     H3  729   6.857   8.550   1.273  0.1745 -3.1023  1.1738
   26ccc     H4  730   6.856   8.574   1.451 -0.0771 -1.9295 -0.3953
   26ccc     C1  731   7.050   8.561   1.387  0.3907  0.2339  0.6643
   26ccc     H1  732   7.098   8.631   1.457  0.9077 -1.7750  2.4333
   26ccc     H2  733   7.098   8.576   1.290 -0.5589 -0.0787  0.1246
   26ccc     N1  734   7.074   8.431   1.445  0.8110  0.4142  0.0076
   26ccc     C4  735   7.218   8.408   1.484 -0.3220  0.6924  0.3752
   26ccc     H7  736   7.222   8.326   1.556  0.3340  0.1660 -0.2451
   26ccc     H8  737   7.258   8.490   1.545  0.7834  1.3323 -1.1460
   26ccc     C5  738   7.304   8.398   1.359  0.2183 -0.9103 -0.4149
   26ccc     H9  739   7.263   8.324   1.290 -2.3043  0.2756 -0.2962
   26ccc    H10  740   7.307   8.499   1.315  0.5134 -0.6448  0.2017
   26ccc     C6  741   7.438   8.354   1.406  0.3810  0.0181 -1.1805
   26ccc     O2  742   7.454   8.246   1.456 -0.0775 -0.3314 -0.2693
   26ccc     O3  743   7.527   8.437   1.434  0.6573  0.0161  0.0556
   26ccc     C7  744   7.006   8.319   1.367  0.2690 -0.5122 -0.6556
   26ccc    H11  745   6.901   8.339   1.342  0.0013 -2.1891 -0.9852
   26ccc    H12  746   7.067   8.309   1.276  2.9837 -1.7221  1.1687
   26ccc     C8  747   6.989   8.194   1.460  0.0095  0.2434 -0.4505
   26ccc    H13  748   7.087   8.157   1.494 -0.2921  1.1053  1.4952
   26ccc    H14  749   6.928   8.230   1.544 -0.0331  1.1403 -0.8615
   26ccc     C9  750   6.906   8.086   1.397  0.0103 -0.8679  0.4998
   26ccc     O4  751   6.782   8.093   1.382  0.5199 -0.2313 -1.2060
   26ccc     O5  752   6.968   7.994   1.348  0.2884  0.1051  1.0458
   26ccc     O1  753   6.972   8.806   1.238  0.4510 -0.1666 -0.7715
   27ccc     C3  754   5.515   8.353  -1.141 -0.4742  1.0073  0.1045
   27ccc     H5  755   5.413   8.337  -1.104 -0.7808 -0.2759 -1.1686
   27ccc     H6  756   5.526   8.461  -1.149 -0.4771  0.9724 -0.4203
   27ccc     C2  757   5.501   8.289  -1.279 -0.8816 -0.2032  0.2068
   27ccc     H3  758   5.599   8.289  -1.327 -1.5095 -0.2519 -1.1157
   27ccc     H4  759   5.433   8.347  -1.342 -2.5586 -0.3102  1.8376
   27ccc     C1  760   5.460   8.145  -1.286  0.1060 -0.2689 -0.6981
   27ccc     H1  761   5.378   8.142  -1.212 -0.6495  1.7200 -1.3895
   27ccc     H2  762   5.539   8.074  -1.260  0.0460 -0.1324 -0.1250
   27ccc     N1  763   5.410   8.086  -1.408 -0.4019 -0.1048 -0.2623
   27ccc     C4  764   5.287   8.143  -1.459  0.1043 -1.0014 -0.6240
   27ccc     H7  765   5.285   8.249  -1.433 -1.9412 -1.1682  0.0719
   27ccc     H8  766   5.208   8.090  -1.403  0.3357 -0.6891  0.0064
   27ccc     C5  767   5.269   8.128  -1.607 -0.3968 -0.4001  0.4168
   27ccc     H9  768   5.361   8.147  -1.664 -1.7389  0.3554 -1.6159
   27ccc    H10  769   5.234   8.028  -1.636 -0.3388 -0.1732 -0.4440
   27ccc     C6  770   5.162   8.207  -1.670  0.0243  0.0627 -1.4334
   27ccc     O2  771   5.162   8.331  -1.661 -0.1074 -0.1675  0.0360
   27ccc     O3  772   5.049   8.166  -1.649  0.0379  0.1561  0.7637
   27ccc     C7  773   5.408   7.939  -1.410 -0.4129 -0.3568 -0.0653
   27ccc    H11  774   5.406   7.900  -1.308 -0.6990  0.9154  0.4327
   27ccc    H12  775   5.318   7.904  -1.463  0.0276  0.3911 -1.3579
   27ccc     C8  776   5.523   7.883  -1.501 -0.0091 -0.2038  0.1218
   27ccc    H13  777   5.505   7.892  -1.609 -1.7764  1.8308  0.5184
   27ccc    H14  778   5.619   7.932  -1.477  0.6689 -0.9439 -0.9786
   27ccc     C9  779   5.529   7.738  -1.481 -0.2627  0.7646 -0.5192
   27ccc     O4  780   5.474   7.670  -1.391 -0.5604  0.5140  0.3550
   27ccc     O5  781   5.596   7.675  -1.561 -0.1972 -0.1345 -0.5003
   27ccc     O1  782   5.610   8.268  -1.071 -0.2614  0.2270  0.2029
   28ccc     C3  783   5.766   8.961  -1.011 -0.2209 -0.0148  1.1411
   28ccc     H5  784   5.803   9.060  -0.983 -2.1462  1.4694 -1.1902
   28ccc     H6  785   5.843   8.895  -1.053 -2.1448 -0.3046 -2.3406
   28ccc     C2  786   5.665   8.992  -1.125 -0.0551 -0.1199  0.3281
   28ccc     H3  787   5.721   9.021  -1.214 -0.4874  1.4683  0.5525
   28ccc     H4  788   5.605   9.078  -1.093 -0.8116 -0.7221  0.5625
   28ccc     C1  789   5.578   8.869  -1.162 -0.1428 -0.2413  0.2163
   28ccc     H1  790   5.508   8.861  -1.078  2.7345 -1.7081  2.6435
   28ccc     H2  791   5.636   8.777  -1.172 -1.7083 -1.2900  0.4966
   28ccc     N1  792   5.512   8.886  -1.289  0.4425 -0.1631 -0.0494
   28ccc     C4  793   5.571   8.806  -1.400 -0.9530 -0.2431  0.3150
   28ccc     H7  794   5.506   8.817  -1.488  0.6879  1.8832 -0.7256
   28ccc     H8  795   5.580   8.700  -1.377 -0.1667 -0.3410 -0.3718
   28ccc     C5  796   5.708   8.845  -1.443 -0.4050 -0.0456  0.5527
   28ccc     H9  797   5.773   8.864  -1.358  1.2150 -0.1133 -0.6296
   28ccc    H10  798   5.753   8.771  -1.511  3.2359  0.8846  1.7396
   28ccc     C6  799   5.689   8.963  -1.530 -0.1414 -0.9213 -0.7859
   28ccc     O2  800   5.673   8.957  -1.646 -0.2594  0.4349  0.6090
   28ccc     O3  801   5.693   9.075  -1.478  0.3526 -0.0756 -0.1311
   28ccc     C7  802   5.367   8.864  -1.287  0.3642  0.4604 -0.8156
   28ccc    H11  803   5.317   8.944  -1.230  1.0552  0.0084  0.4669
   28ccc    H12  804   5.330   8.870  -1.390  1.1641 -0.9836 -1.2068
   28ccc     C8  805   5.316   8.730  -1.236 -0.3875 -0.0958 -0.0554
   28ccc    H13  806   5.392   8.653  -1.255 -2.2344 -2.5464  1.8305
   28ccc    H14  807   5.273   8.736  -1.136 -1.6985 -0.3576 -0.5829
   28ccc     C9  808   5.199   8.694  -1.330  0.0859 -0.1117  0.5601
   28ccc     O4  809   5.085   8.694  -1.285 -0.3893 -0.0795  0.3696
   28ccc     O5  810   5.205   8.649  -1.445 -0.2099  0.0736  0.4485
   28ccc     O1  811   5.695   8.898  -0.907 -0.0697 -0.3196 -0.3083
   29ccc     C3  812   4.991   9.201  -1.279  0.4171  0.2681 -0.3326
   29ccc     H5  813   4.948   9.130  -1.207 -1.2475 -0.8918 -2.3499
   29ccc     H6  814   4.935   9.296  -1.272  1.2219  0.7113  0.2475
   29ccc     C2  815   4.990   9.146  -1.425  0.1098 -0.1966 -0.5974
   29ccc     H3  816   5.018   9.228  -1.492  0.1551 -0.9739 -1.5561
   29ccc     H4  817   4.889   9.110  -1.447  0.1104 -1.9653  1.9092
   29ccc     C1  818   5.086   9.026  -1.457 -0.3413 -0.9432  0.0354
   29ccc     H1  819   5.071   8.955  -1.374 -2.6952  1.3862  1.7608
   29ccc     H2  820   5.187   9.065  -1.442 -1.0956  1.6891 -1.1936
   29ccc     N1  821   5.063   8.958  -1.584 -0.0844 -0.0883 -1.2437
   29ccc     C4  822   5.069   9.035  -1.705 -0.6116  1.0440 -0.3911
   29ccc     H7  823   4.982   9.101  -1.698 -0.6618  0.8368  1.9747
   29ccc     H8  824   5.061   8.972  -1.794  1.0085 -0.4527  0.4699
   29ccc     C5  825   5.198   9.120  -1.708 -0.5469 -0.3453 -0.1200
   29ccc     H9  826   5.200   9.204  -1.778 -0.9320  2.0371  2.5317
   29ccc    H10  827   5.208   9.168  -1.610  0.0494 -1.3070  0.3058
   29ccc     C6  828   5.318   9.041  -1.731 -0.1831  0.5326 -0.2323
   29ccc     O2  829   5.322   8.915  -1.720 -0.0459 -0.3436  0.2904
   29ccc     O3  830   5.429   9.094  -1.738  0.2857  0.5505  0.0323
   29ccc     C7  831   4.943   8.866  -1.576  0.2250 -0.4555 -0.1164
   29ccc    H11  832   4.938   8.821  -1.476 -2.0113  1.9200  0.9568
   29ccc    H12  833   4.852   8.927  -1.583 -0.2450 -1.1333  0.0111
   29ccc     C8  834   4.922   8.763  -1.691  0.1055  0.1889 -0.3051
   29ccc    H13  835   4.827   8.708  -1.689 -0.1413  0.5708 -1.0619
   29ccc    H14  836   4.942   8.795  -1.793  1.7253  0.1307 -0.0316
   29ccc     C9  837   5.015   8.653  -1.679  0.1428 -0.1136  0.5427
   29ccc     O4  838   4.981   8.563  -1.610  0.0869 -0.1350  0.1366
   29ccc     O5  839   5.121   8.654  -1.742  0.1795  0.5207  0.2514
   29ccc     O1  840   5.123   9.228  -1.247 -0.1468  0.2578  0.1553
   30ccc     C3  841   5.175   8.586  -0.900 -0.0827 -0.2177 -0.1560
   30ccc     H5  842   5.254   8.558  -0.971  0.2817 -2.6141  1.0841
   30ccc     H6  843   5.208   8.543  -0.804  1.3963  1.5095  0.1461
   30ccc     C2  844   5.036   8.522  -0.944 -0.2529 -0.3007  0.1806
   30ccc     H3  845   5.002   8.553  -1.044 -0.3487  0.2066  0.3682
   30ccc     H4  846   4.963   8.553  -0.868 -0.0963  0.5398 -0.0080
   30ccc     C1  847   5.019   8.366  -0.918 -0.1515  0.1699  0.0275
   30ccc     H1  848   4.923   8.324  -0.949  0.5261 -1.2305 -0.2253
   30ccc     H2  849   5.035   8.351  -0.810  2.7816 -0.9666 -0.4847
   30ccc     N1  850   5.112   8.277  -0.989 -0.5242  0.0926 -0.3044
   30ccc     C4  851   5.112   8.311  -1.132 -1.1679 -0.0542  0.1881
   30ccc     H7  852   5.195   8.261  -1.184  1.1377 -0.0135  3.5180
   30ccc     H8  853   5.131   8.418  -1.146  0.6360 -0.4371 -0.5964
   30ccc     C5  854   4.982   8.275  -1.202 -0.4875  0.6424 -0.2343
   30ccc     H9  855   4.955   8.169  -1.204 -1.9477  0.9639  0.8936
   30ccc    H10  856   4.901   8.337  -1.161  0.3475  2.5902 -1.3871
   30ccc     C6  857   4.988   8.301  -1.350  0.6220 -0.1975  0.2202
   30ccc     O2  858   5.058   8.391  -1.396  0.8352  0.1540  0.1717
   30ccc     O3  859   4.919   8.234  -1.420 -0.5178 -0.9159  0.8607
   30ccc     C7  860   5.080   8.136  -0.948  0.3136 -0.9440 -1.0016
   30ccc    H11  861   5.087   8.135  -0.838 -0.5041  0.5917 -0.9135
   30ccc    H12  862   4.977   8.112  -0.977 -0.0831  0.0842 -0.4913
   30ccc     C8  863   5.187   8.037  -0.991  0.3991 -0.1633 -0.3475
   30ccc    H13  864   5.168   8.017  -1.097  1.6986  1.2925 -0.9052
   30ccc    H14  865   5.292   8.067  -0.983  0.6135 -0.7497 -0.9216
   30ccc     C9  866   5.176   7.907  -0.912 -0.2450 -0.9178  0.2802
   30ccc     O4  867   5.205   7.909  -0.799 -0.5164 -0.2095 -0.3852
   30ccc     O5  868   5.140   7.807  -0.969 -0.1513  0.5557  0.1340
   30ccc     O1  869   5.164   8.725  -0.888  0.0714 -0.1497 -0.4248
   31ccc     C3  870   6.983   7.752  -1.610  0.4136 -0.4169 -0.6769
   31ccc     H5  871   7.052   7.682  -1.562 -0.6236 -0.6090  0.5548
   31ccc     H6  872   6.975   7.725  -1.716  2.5837  2.2155 -1.6433
   31ccc     C2  873   7.059   7.898  -1.601  1.0145  0.0923  0.1602
   31ccc     H3  874   7.154   7.900  -1.655  0.3688 -0.0296 -0.9945
   31ccc     H4  875   7.072   7.916  -1.493  0.2178  0.2896  0.2286
   31ccc     C1  876   6.969   8.010  -1.659  0.0514 -0.2647 -0.0357
   31ccc     H1  877   6.872   8.014  -1.609 -0.7459  1.7693 -1.5609
   31ccc     H2  878   6.948   7.977  -1.762 -0.3022  0.2492 -0.1381
   31ccc     N1  879   7.036   8.140  -1.669  0.8726 -1.0129  0.3866
   31ccc     C4  880   6.954   8.234  -1.755 -0.5858 -0.0723 -0.1066
   31ccc     H7  881   6.965   8.340  -1.731 -2.7221  0.2342 -0.2920
   31ccc     H8  882   6.850   8.202  -1.748  0.4184 -3.5526  1.0774
   31ccc     C5  883   6.999   8.219  -1.899  0.0442  0.5800 -0.1343
   31ccc     H9  884   7.108   8.224  -1.914 -0.0913  0.9591 -1.0310
   31ccc    H10  885   6.972   8.124  -1.947  0.3522  0.9445 -1.0556
   31ccc     C6  886   6.944   8.337  -1.985  0.1372 -0.6292  0.2655
   31ccc     O2  887   6.823   8.338  -2.016  0.0056  0.6163 -0.2408
   31ccc     O3  888   7.004   8.441  -1.970  0.3449  0.8392 -0.3461
   31ccc     C7  889   7.071   8.205  -1.543 -1.1062  0.2232  0.3287
   31ccc    H11  890   6.976   8.241  -1.503 -0.6867  1.9348 -0.1278
   31ccc    H12  891   7.104   8.127  -1.473  0.3282 -1.1481 -1.7730
   31ccc     C8  892   7.195   8.307  -1.554  0.1938  0.3218  0.4287
   31ccc    H13  893   7.264   8.307  -1.469 -0.5121  2.0932  1.0491
   31ccc    H14  894   7.255   8.283  -1.642 -0.2643 -2.6356  0.8243
   31ccc     C9  895   7.147   8.448  -1.571 -0.0773  0.2032  0.3106
   31ccc     O4  896   7.161   8.504  -1.677 -0.0139 -0.4510 -0.1168
   31ccc     O5  897   7.132   8.520  -1.478  0.1172  0.1024  0.5661
   31ccc     O1  898   6.858   7.757  -1.539  0.2474  0.1278  0.2497
   32ccc     C3  899   6.321   8.371  -1.293  0.3180  0.4556 -0.6307
   32ccc     H5  900   6.333   8.449  -1.368 -2.4938  1.5824 -0.0447
   32ccc     H6  901   6.221   8.382  -1.249  0.4872 -3.0494  1.0262
   32ccc     C2  902   6.437   8.388  -1.185  0.1975  0.0094  0.2708
   32ccc     H3  903   6.393   8.361  -1.089 -1.4281  1.8113  0.0739
   32ccc     H4  904   6.455   8.496  -1.178  0.1633 -0.0842  2.5256
   32ccc     C1  905   6.579   8.316  -1.211  0.5498 -0.6884 -0.7378
   32ccc     H1  906   6.556   8.215  -1.247  0.9281 -1.6239  1.4863
   32ccc     H2  907   6.632   8.302  -1.116 -0.8575  0.8062  0.2989
   32ccc     N1  908   6.665   8.388  -1.306  0.0799  0.5463  0.2311
   32ccc     C4  909   6.620   8.366  -1.445  0.4172  0.2344  0.4801
   32ccc     H7  910   6.525   8.419  -1.461  0.2981 -0.2907 -0.6949
   32ccc     H8  911   6.609   8.259  -1.467  1.9990  0.6761 -3.1589
   32ccc     C5  912   6.720   8.421  -1.553 -0.0881 -0.3504 -0.2508
   32ccc     H9  913   6.733   8.529  -1.535  2.7916 -0.4593 -1.1669
   32ccc    H10  914   6.822   8.381  -1.540  0.2501  0.0107 -1.6214
   32ccc     C6  915   6.667   8.404  -1.691  0.2646  0.2039  0.0329
   32ccc     O2  916   6.715   8.457  -1.790 -0.2349 -0.2359  0.1929
   32ccc     O3  917   6.579   8.322  -1.720  0.0950  0.4000  0.2194
   32ccc     C7  918   6.704   8.532  -1.269  0.3258  0.2394 -0.7783
   32ccc    H11  919   6.784   8.566  -1.336  1.0055 -2.1534 -1.2874
   32ccc    H12  920   6.618   8.599  -1.264  0.1745 -0.0365  1.0347
   32ccc     C8  921   6.765   8.536  -1.126  0.1026  0.2227  0.3132
   32ccc    H13  922   6.686   8.526  -1.050  0.2461  0.4537  0.4978
   32ccc    H14  923   6.832   8.450  -1.133 -1.3826 -0.8326 -1.6612
   32ccc     C9  924   6.850   8.660  -1.115 -0.1617 -0.2034  0.2406
   32ccc     O4  925   6.826   8.747  -1.035  0.0986  0.2857 -1.0945
   32ccc     O5  926   6.948   8.675  -1.189  0.3751 -0.0820  0.2425
   32ccc     O1  927   6.338   8.240  -1.354 -0.4933 -0.4219 -0.1795
   33ccc     C3  928   7.129   7.646   0.349  0.2611 -0.3806  0.6455
   33ccc     H5  929   7.127   7.754   0.327 -1.5583 -0.3588  0.7579
   33ccc     H6  930   7.148   7.621   0.454  2.6147 -3.5437 -0.3821
   33ccc     C2  931   7.239   7.576   0.263  0.1231  0.2325 -0.3165
   33ccc     H3  932   7.222   7.468   0.261  0.5413  0.1087  1.2240
   33ccc     H4  933   7.335   7.596   0.312 -1.2946  3.2733  1.5567
   33ccc     C1  934   7.242   7.627   0.115 -0.0002  0.4689  0.8061
   33ccc     H1  935   7.247   7.734   0.138 -2.3369  0.8330 -0.1579
   33ccc     H2  936   7.157   7.611   0.048  1.4354 -1.8755 -0.6165
   33ccc     N1  937   7.367   7.592   0.039  0.1200 -0.5419 -0.1440
   33ccc     C4  938   7.362   7.454  -0.007 -0.8305 -0.5550 -0.2026
   33ccc     H7  939   7.337   7.447  -0.114 -2.2449 -1.2133  0.1456
   33ccc     H8  940   7.284   7.403   0.051 -1.1115  0.3680  0.2584
   33ccc     C5  941   7.494   7.377   0.015 -0.0916 -0.1191 -0.1072
   33ccc     H9  942   7.579   7.440   0.044  0.3005 -1.0873  0.9283
   33ccc    H10  943   7.486   7.308   0.100 -0.4215 -1.2587 -1.0284
   33ccc     C6  944   7.531   7.297  -0.108  0.1863 -1.0233 -1.0513
   33ccc     O2  945   7.591   7.351  -0.201 -0.5007 -0.4750  0.0630
   33ccc     O3  946   7.474   7.196  -0.138  0.4416 -0.0151  0.0027
   33ccc     C7  947   7.394   7.687  -0.067  0.4531 -0.2101  0.5588
   33ccc    H11  948   7.458   7.635  -0.140  2.0913  0.9072  1.1223
   33ccc    H12  949   7.302   7.726  -0.112  0.4364  2.1967  2.4768
   33ccc     C8  950   7.480   7.796  -0.007 -0.6105 -0.1159  0.3572
   33ccc    H13  951   7.415   7.858   0.057 -0.0771 -0.0013  0.8027
   33ccc    H14  952   7.568   7.756   0.046  1.5359  1.5396 -1.7416
   33ccc     C9  953   7.534   7.884  -0.114  0.9495 -0.2864 -0.3907
   33ccc     O4  954   7.636   7.854  -0.165  0.0583 -0.7610 -0.2763
   33ccc     O5  955   7.465   7.979  -0.151 -0.2767  0.7749  0.4709
   33ccc     O1  956   7.005   7.591   0.305 -0.4082 -0.3777  0.2750
   34ccc     C3  957   6.551   6.855   0.128  1.2947  0.0236  0.4182
   34ccc     H5  958   6.591   6.759   0.163 -0.8788 -1.3615 -0.6720
   34ccc     H6  959   6.500   6.898   0.215  0.1475 -2.6462  1.1624
   34ccc     C2  960   6.443   6.837   0.016  0.2212  0.0460  0.2866
   34ccc     H3  961   6.356   6.785   0.059  0.3222 -0.3862 -0.0267
   34ccc     H4  962   6.472   6.779  -0.072  0.8529  1.1756 -0.2683
   34ccc     C1  963   6.391   6.979  -0.028  0.1505 -0.5165 -0.0356
   34ccc     H1  964   6.462   7.001  -0.108 -1.2015  4.5279 -0.1699
   34ccc     H2  965   6.402   7.056   0.049  0.8864 -0.5980 -0.0547
   34ccc     N1  966   6.262   6.970  -0.097  0.0308 -0.4620  0.4444
   34ccc     C4  967   6.174   7.088  -0.084 -0.0312 -0.3926 -0.0243
   34ccc     H7  968   6.100   7.101  -0.164 -0.2726  0.9802  0.3866
   34ccc     H8  969   6.242   7.174  -0.088 -0.0967 -0.3786 -1.2929
   34ccc     C5  970   6.111   7.090   0.051  0.2430  0.0517  0.2329
   34ccc     H9  971   6.070   6.990   0.069  3.4977 -1.6443 -0.9278
   34ccc    H10  972   6.175   7.127   0.132  1.4948  3.1175 -1.9549
   34ccc     C6  973   5.994   7.180   0.044  0.2529 -0.1158 -0.1905
   34ccc     O2  974   6.007   7.291   0.090 -0.1918 -0.2973 -0.9809
   34ccc     O3  975   5.886   7.147   0.002 -0.4939  1.3142  0.1643
   34ccc     C7  976   6.255   6.904  -0.230 -0.1470  0.8376  0.2005
   34ccc    H11  977   6.333   6.827  -0.227 -0.6793  0.0301 -3.1366
   34ccc    H12  978   6.158   6.854  -0.241  1.5570 -2.5642 -0.8579
   34ccc     C8  979   6.286   6.999  -0.346  0.5901 -0.5466 -0.0466
   34ccc    H13  980   6.211   7.079  -0.351  0.0864 -1.0430 -0.5731
   34ccc    H14  981   6.389   7.036  -0.343  1.2615 -1.8748 -3.1017
   34ccc     C9  982   6.273   6.923  -0.472 -0.3694  0.1896  0.3237
   34ccc     O4  983   6.374   6.878  -0.525 -0.0402 -0.4786 -0.2644
   34ccc     O5  984   6.163   6.888  -0.515  0.0306 -0.1137 -0.0754
   34ccc     O1  985   6.654   6.936   0.079 -0.9956 -0.2847  0.0641
   35ccc     C3  986   7.896   9.119   0.928 -0.2943  0.3322 -0.0282
   35ccc     H5  987   7.822   9.194   0.900 -1.3863 -0.9776 -0.7603
   35ccc     H6  988   7.933   9.121   1.031  2.1331 -0.8225 -0.7962
   35ccc     C2  989   8.009   9.137   0.836  0.0395 -0.0414  0.0833
   35ccc     H3  990   8.055   9.232   0.867 -2.3165  1.0198  0.5557
   35ccc     H4  991   7.965   9.141   0.736  2.3652 -0.3252 -1.0404
   35ccc     C1  992   8.109   9.016   0.840 -0.0711  0.1018 -0.6966
   35ccc     H1  993   8.059   8.926   0.803 -0.7183  0.8528 -1.6923
   35ccc     H2  994   8.147   8.980   0.936  1.3219 -0.6848 -1.5068
   35ccc     N1  995   8.229   9.031   0.758 -0.4040  0.3544  0.0628
   35ccc     C4  996   8.323   9.126   0.811 -0.1978  0.3087 -1.0748
   35ccc     H7  997   8.329   9.115   0.920 -2.8665 -1.3976 -1.0146
   35ccc     H8  998   8.280   9.227   0.806 -0.6658  0.3874  2.1768
   35ccc     C5  999   8.466   9.119   0.754  0.3593  0.1391  0.5048
   35ccc     H9 1000   8.508   9.018   0.766  1.5605  0.5617 -0.0005
   35ccc    H10 1001   8.468   9.146   0.648 -0.9884  0.5472  0.5653
   35ccc     C6 1002   8.540   9.217   0.831 -0.3599  0.0399  0.2066
   35ccc     O2 1003   8.509   9.334   0.831 -0.6807 -0.1723  0.0154
   35ccc     O3 1004   8.610   9.182   0.922 -0.3018 -0.1588 -0.4540
   35ccc     C7 1005   8.199   9.065   0.616  0.1080  1.0009  0.6386
   35ccc    H11 1006   8.144   9.160   0.606  0.5313  1.0905 -1.1701
   35ccc    H12 1007   8.292   9.088   0.563  0.9874 -0.7564  1.3622
   35ccc     C8 1008   8.128   8.947   0.545 -0.7206  0.7360  0.1314
   35ccc    H13 1009   8.200   8.864   0.549  0.2678  1.6187  2.3146
   35ccc    H14 1010   8.029   8.930   0.590  0.6274  1.2715  3.5978
   35ccc     C9 1011   8.094   8.978   0.399  0.1212 -0.4474 -0.0449
   35ccc     O4 1012   8.183   9.017   0.333  0.3167 -0.3705  0.2657
   35ccc     O5 1013   7.992   8.940   0.344  0.0268  0.2921  0.4563
   35ccc     O1 1014   7.834   8.994   0.888  0.0321  0.1618 -0.3593
   36ccc     C3 1015   7.593   8.448   0.352  0.2667  0.1861  0.8592
   36ccc     H5 1016   7.558   8.349   0.322 -0.2220  0.1868  1.4036
   36ccc     H6 1017   7.505   8.511   0.369  1.5335  2.7379 -1.2755
   36ccc     C2 1018   7.675   8.498   0.230 -0.2611 -0.0551  1.0038
   36ccc     H3 1019   7.761   8.437   0.201 -1.1735 -0.1771 -1.7455
   36ccc     H4 1020   7.717   8.594   0.260  0.7060 -0.2548  0.3123
   36ccc     C1 1021   7.574   8.525   0.116 -0.3163  0.2865  0.0236
   36ccc     H1 1022   7.513   8.613   0.139 -1.3583 -0.5258  0.4924
   36ccc     H2 1023   7.502   8.442   0.114 -0.6972  0.6153  0.0018
   36ccc     N1 1024   7.641   8.539  -0.018 -0.6157  0.6452  0.6108
   36ccc     C4 1025   7.558   8.473  -0.119 -0.0380 -0.6462 -0.0794
   36ccc     H7 1026   7.486   8.549  -0.151 -1.6915 -1.4228  1.6671
   36ccc     H8 1027   7.507   8.387  -0.075 -0.6539 -0.7301 -0.9275
   36ccc     C5 1028   7.640   8.426  -0.245  0.3345  0.2280 -0.3557
   36ccc     H9 1029   7.665   8.518  -0.298 -0.5303  0.7402  0.0993
   36ccc    H10 1030   7.729   8.366  -0.220  1.5597  0.9647 -2.6974
   36ccc     C6 1031   7.551   8.342  -0.325  0.3501  0.0531  0.2657
   36ccc     O2 1032   7.469   8.391  -0.401 -0.1874 -0.3317 -0.1480
   36ccc     O3 1033   7.547   8.223  -0.304  0.1525 -0.1891  0.0386
   36ccc     C7 1034   7.674   8.676  -0.058  1.0553 -0.1708 -0.3307
   36ccc    H11 1035   7.721   8.689  -0.157  1.2129 -2.0201 -0.5355
   36ccc    H12 1036   7.581   8.733  -0.055  0.7105 -0.7558  1.8817
   36ccc     C8 1037   7.776   8.746   0.045 -0.2702  0.8888  0.1591
   36ccc    H13 1038   7.730   8.780   0.139 -0.4653 -0.6923  0.6705
   36ccc    H14 1039   7.869   8.690   0.060  0.3319  2.0166  0.7676
   36ccc     C9 1040   7.828   8.873  -0.010  0.5169  0.1530 -0.4401
   36ccc     O4 1041   7.745   8.955  -0.032 -1.1558 -0.0295 -0.3122
   36ccc     O5 1042   7.937   8.919   0.012  0.3907 -0.4277 -0.6382
   36ccc     O1 1043   7.672   8.449   0.473  0.0358 -0.0640  0.4865
   37ccc     C3 1044   6.890   7.591  -0.112 -0.3129  0.9000  0.0910
   37ccc     H5 1045   6.963   7.612  -0.033  0.6508 -0.7016 -0.3226
   37ccc     H6 1046   6.823   7.511  -0.077  2.8101 -1.8514  0.3449
   37ccc     C2 1047   6.962   7.564  -0.242  0.9943 -0.2690  0.1172
   37ccc     H3 1048   6.895   7.562  -0.329  2.3953 -2.6346 -1.0237
   37ccc     H4 1049   7.005   7.463  -0.228  1.5841  0.1880  1.7798
   37ccc     C1 1050   7.077   7.659  -0.276 -0.5642  0.2427  0.4379
   37ccc     H1 1051   7.149   7.628  -0.200  0.8706  0.4484 -0.8059
   37ccc     H2 1052   7.040   7.762  -0.270  0.8656  0.7072  1.8388
   37ccc     N1 1053   7.135   7.637  -0.409 -0.5640  0.3432  0.1744
   37ccc     C4 1054   7.185   7.764  -0.469 -0.0621 -0.0111 -0.3364
   37ccc     H7 1055   7.105   7.837  -0.487 -3.0265 -2.5950  1.4023
   37ccc     H8 1056   7.240   7.739  -0.561  0.6291 -1.2456  0.3774
   37ccc     C5 1057   7.280   7.844  -0.378  0.3124 -0.8445 -0.6951
   37ccc     H9 1058   7.226   7.886  -0.292  0.5846  0.3209 -1.0684
   37ccc    H10 1059   7.368   7.790  -0.343  0.1295 -0.7691 -0.1047
   37ccc     C6 1060   7.322   7.970  -0.443 -0.1313  0.3160 -0.0002
   37ccc     O2 1061   7.396   7.973  -0.541 -0.4971 -0.4067  0.3193
   37ccc     O3 1062   7.308   8.075  -0.381  0.0921 -0.2326 -0.1253
   37ccc     C7 1063   7.241   7.536  -0.396  0.0325 -0.3462 -0.1791
   37ccc    H11 1064   7.329   7.572  -0.341 -0.7753 -0.2919  1.1212
   37ccc    H12 1065   7.214   7.447  -0.339  0.8078 -1.3907 -1.4070
   37ccc     C8 1066   7.309   7.482  -0.525  0.0697 -0.1725  0.6819
   37ccc    H13 1067   7.239   7.433  -0.594  0.1807 -0.0595  0.4871
   37ccc    H14 1068   7.354   7.562  -0.585  0.4665 -0.3581  0.7313
   37ccc     C9 1069   7.420   7.382  -0.489  0.0830  0.2098  0.0942
   37ccc     O4 1070   7.384   7.267  -0.467 -0.0440  0.3779  0.5533
   37ccc     O5 1071   7.534   7.415  -0.468 -0.2434 -0.0610  0.9807
   37ccc     O1 1072   6.805   7.708  -0.131 -0.3945 -0.1174  0.0566
   38ccc     C3 1073   7.244   8.386   0.433 -0.6064  0.0044 -0.0104
   38ccc     H5 1074   7.351   8.368   0.449 -0.3918  0.4172 -0.8883
   38ccc     H6 1075   7.242   8.483   0.382  1.3447  0.0771 -0.0158
   38ccc     C2 1076   7.188   8.385   0.572 -0.2081  0.1238  0.4105
   38ccc     H3 1077   7.080   8.395   0.558 -0.1803 -1.1607 -1.0182
   38ccc     H4 1078   7.217   8.475   0.627 -0.7898  2.1677 -2.4458
   38ccc     C1 1079   7.212   8.261   0.656 -0.4501  0.5038  0.5916
   38ccc     H1 1080   7.319   8.243   0.671 -0.7116 -1.5434  0.2995
   38ccc     H2 1081   7.190   8.176   0.590  1.0637  1.7150 -1.5797
   38ccc     N1 1082   7.159   8.262   0.795  0.1321  0.7067  0.4183
   38ccc     C4 1083   7.013   8.276   0.813  0.3088 -0.1595  0.5207
   38ccc     H7 1084   6.961   8.189   0.771  1.7775  0.5124 -3.0153
   38ccc     H8 1085   6.978   8.354   0.744  0.3262 -0.4673  0.1591
   38ccc     C5 1086   6.978   8.324   0.955 -0.1078  0.3085  0.6681
   38ccc     H9 1087   7.070   8.322   1.014  2.1699 -0.2803 -2.6453
   38ccc    H10 1088   6.941   8.427   0.956 -0.9885  0.0002  1.3706
   38ccc     C6 1089   6.890   8.229   1.027  0.2137 -0.1384  0.0901
   38ccc     O2 1090   6.772   8.255   1.038 -0.4936 -0.1780  0.0085
   38ccc     O3 1091   6.938   8.137   1.090  0.3958 -0.6335  0.2347
   38ccc     C7 1092   7.211   8.148   0.877 -1.2135 -0.5794 -0.1871
   38ccc    H11 1093   7.125   8.098   0.924 -0.2163 -1.8031  0.4185
   38ccc    H12 1094   7.250   8.067   0.814 -1.0865  0.9854 -2.2291
   38ccc     C8 1095   7.310   8.194   0.979  0.0132 -0.4722  0.3723
   38ccc    H13 1096   7.397   8.238   0.929 -0.1378 -1.5349 -0.8683
   38ccc    H14 1097   7.262   8.268   1.044  0.5032  1.4696 -1.3896
   38ccc     C9 1098   7.346   8.079   1.065  0.3107  0.2650 -1.0841
   38ccc     O4 1099   7.262   8.037   1.145  0.0981 -0.4726 -0.1161
   38ccc     O5 1100   7.458   8.066   1.100  0.4992 -0.2844  0.2021
   38ccc     O1 1101   7.195   8.279   0.351 -0.4400 -0.1624  0.7592
   39ccc     C3 1102   5.925   8.221  -1.511  0.1055 -0.9264  0.2660
   39ccc     H5 1103   5.965   8.253  -1.607  1.2319 -0.6132  0.8280
   39ccc     H6 1104   6.007   8.173  -1.457  0.3383 -1.7409 -0.7991
   39ccc     C2 1105   5.806   8.124  -1.538 -0.3894 -0.3341 -0.0711
   39ccc     H3 1106   5.783   8.092  -1.436  0.4404 -1.3826 -0.1884
   39ccc     H4 1107   5.848   8.038  -1.593 -2.3650 -0.4048 -1.5969
   39ccc     C1 1108   5.680   8.181  -1.599  0.5783 -0.3699 -0.3007
   39ccc     H1 1109   5.610   8.226  -1.527  1.4898  0.9761 -0.2248
   39ccc     H2 1110   5.623   8.100  -1.646 -0.2749  0.1326 -0.1536
   39ccc     N1 1111   5.700   8.278  -1.701  0.5332 -0.2607  0.4460
   39ccc     C4 1112   5.587   8.373  -1.723 -0.3760 -0.1803  0.3866
   39ccc     H7 1113   5.493   8.319  -1.705  0.2344 -1.2381  0.4949
   39ccc     H8 1114   5.589   8.407  -1.827 -0.7901 -0.7919  0.1724
   39ccc     C5 1115   5.582   8.491  -1.631 -0.1360  0.6343 -0.0070
   39ccc     H9 1116   5.566   8.461  -1.527 -0.2876  1.6823  0.2778
   39ccc    H10 1117   5.673   8.552  -1.633 -0.9134  1.8640 -2.8929
   39ccc     C6 1118   5.469   8.575  -1.665 -0.9275  0.6082  0.2401
   39ccc     O2 1119   5.359   8.527  -1.655 -0.4306 -0.4077 -0.3186
   39ccc     O3 1120   5.474   8.690  -1.707 -0.4704 -0.0482  0.2572
   39ccc     C7 1121   5.741   8.222  -1.828 -0.1332  0.7003 -0.3857
   39ccc    H11 1122   5.804   8.133  -1.816  0.9448  1.7119  2.2399
   39ccc    H12 1123   5.652   8.182  -1.878 -0.9985 -2.7729  3.3687
   39ccc     C8 1124   5.826   8.325  -1.899 -0.0847  0.1257 -0.1228
   39ccc    H13 1125   5.781   8.422  -1.925  0.1275  0.3060  0.1801
   39ccc    H14 1126   5.919   8.338  -1.842 -1.6835 -0.4658  2.8393
   39ccc     C9 1127   5.868   8.279  -2.032 -0.4035  0.3204 -0.4638
   39ccc     O4 1128   5.982   8.235  -2.049  0.3003 -0.1062  0.1457
   39ccc     O5 1129   5.795   8.280  -2.128 -0.1175 -0.4755  0.6792
   39ccc     O1 1130   5.862   8.327  -1.440  0.2187 -0.1770 -0.3692
   40ccc     C3 1131   6.459   8.700  -1.561 -0.4227  0.4114 -0.1868
   40ccc     H5 1132   6.510   8.657  -1.474  2.4045  2.2014 -0.8084
   40ccc     H6 1133   6.408   8.619  -1.615  1.9345 -1.7267  0.5879
   40ccc     C2 1134   6.563   8.778  -1.647 -0.0952  0.0220  0.2929
   40ccc     H3 1135   6.508   8.830  -1.726 -1.3055 -2.9384 -0.9520
   40ccc     H4 1136   6.634   8.712  -1.698  0.9691  1.4648 -0.1676
   40ccc     C1 1137   6.641   8.871  -1.555 -0.4163 -0.0657  0.0878
   40ccc     H1 1138   6.650   8.816  -1.460  0.0388 -0.0689  0.0444
   40ccc     H2 1139   6.582   8.961  -1.531 -1.4402 -0.5730 -0.4743
   40ccc     N1 1140   6.770   8.908  -1.609 -0.8191 -0.2353  0.3324
   40ccc     C4 1141   6.861   8.981  -1.515 -0.6889 -0.8606  0.8727
   40ccc     H7 1142   6.810   9.075  -1.487 -0.4327  0.1954 -1.9159
   40ccc     H8 1143   6.953   9.021  -1.559 -1.3781 -0.6300 -0.4083
   40ccc     C5 1144   6.895   8.898  -1.396 -0.0552  0.8225  0.0384
   40ccc     H9 1145   6.828   8.925  -1.313 -0.9817 -0.0260 -0.4145
   40ccc    H10 1146   6.873   8.797  -1.431 -2.9343  1.1660  0.6108
   40ccc     C6 1147   7.041   8.900  -1.364  0.3731 -0.1858  0.5949
   40ccc     O2 1148   7.112   8.823  -1.424  0.6140  0.2111  0.2505
   40ccc     O3 1149   7.078   8.944  -1.255  0.1011 -0.1529 -0.1785
   40ccc     C7 1150   6.784   8.949  -1.747  0.0330  0.1406 -0.0727
   40ccc    H11 1151   6.708   8.901  -1.810 -0.6664 -1.5833  1.9525
   40ccc    H12 1152   6.779   9.058  -1.740  1.3228  0.1152  1.9360
   40ccc     C8 1153   6.914   8.926  -1.816 -0.5950  0.7305 -0.6882
   40ccc    H13 1154   6.896   8.940  -1.923 -0.0822  0.9586 -0.7473
   40ccc    H14 1155   6.993   8.990  -1.773  0.7408 -2.2090  1.5854
   40ccc     C9 1156   6.954   8.787  -1.802 -0.4496  0.1411  0.5052
   40ccc     O4 1157   7.064   8.770  -1.745 -0.1469 -0.4003  0.4794
   40ccc     O5 1158   6.926   8.699  -1.880  0.3583  0.3950  0.1041
   40ccc     O1 1159   6.351   8.786  -1.521 -0.0249 -0.4948 -0.0748
   41ccc     C3 1160   5.709   7.614  -0.509  0.0759 -0.2343  0.4910
   41ccc     H5 1161   5.737   7.539  -0.434 -0.9030 -0.4218  0.6859
   41ccc     H6 1162   5.621   7.669  -0.475 -1.1079  1.1162 -4.0584
   41ccc     C2 1163   5.677   7.560  -0.654 -0.1910 -0.8341 -0.3654
   41ccc     H3 1164   5.675   7.647  -0.720  2.2376 -0.8961 -0.6151
   41ccc     H4 1165   5.580   7.512  -0.637  0.3972 -2.7496 -2.0439
   41ccc     C1 1166   5.764   7.450  -0.716  0.1297 -0.2761  0.0670
   41ccc     H1 1167   5.806   7.408  -0.624  0.8045  2.0768  0.9048
   41ccc     H2 1168   5.838   7.503  -0.777  1.3361 -0.7314  1.0976
   41ccc     N1 1169   5.688   7.351  -0.797 -0.2384 -0.4555  0.0928
   41ccc     C4 1170   5.628   7.421  -0.912  0.5380  0.3740  0.0748
   41ccc     H7 1171   5.704   7.480  -0.966 -0.9595  1.7525 -0.6270
   41ccc     H8 1172   5.565   7.503  -0.876 -0.2544  0.0160 -0.4696
   41ccc     C5 1173   5.556   7.329  -1.010 -0.4499 -0.6874  0.3050
   41ccc     H9 1174   5.624   7.251  -1.046 -0.1099 -0.1178 -0.2876
   41ccc    H10 1175   5.467   7.284  -0.963  1.1347 -0.8827  3.3263
   41ccc     C6 1176   5.503   7.397  -1.131  0.1956  0.5873  0.6423
   41ccc     O2 1177   5.572   7.451  -1.210 -0.3633 -0.0851  0.4294
   41ccc     O3 1178   5.384   7.423  -1.146 -0.1405  0.2615  0.6612
   41ccc     C7 1179   5.770   7.236  -0.839  0.0290  0.0278  0.3021
   41ccc    H11 1180   5.706   7.153  -0.870  1.8459 -1.4803  0.3879
   41ccc    H12 1181   5.830   7.275  -0.922 -2.5428  1.7246 -0.8556
   41ccc     C8 1182   5.844   7.171  -0.722 -0.7100 -0.1211  0.5314
   41ccc    H13 1183   5.920   7.241  -0.685  0.4616 -0.6427 -0.7728
   41ccc    H14 1184   5.783   7.138  -0.638  0.4034 -1.6340  0.7971
   41ccc     C9 1185   5.919   7.049  -0.773  0.2856 -0.0853 -0.0875
   41ccc     O4 1186   5.931   6.957  -0.694  0.4575 -0.1376  0.1699
   41ccc     O5 1187   6.000   7.062  -0.866 -0.2543  0.1893 -0.4551
   41ccc     O1 1188   5.818   7.700  -0.526 -0.2866 -0.1161 -0.4966
   42ccc     C3 1189   5.977   8.236  -1.049 -0.2772 -0.1165  0.5044
   42ccc     H5 1190   5.888   8.294  -1.074 -0.5948 -1.1771 -0.9714
   42ccc     H6 1191   6.063   8.296  -1.082 -2.0109  1.7409 -0.8970
   42ccc     C2 1192   5.962   8.106  -1.124 -0.1987  0.4163 -0.0473
   42ccc     H3 1193   6.053   8.046  -1.115 -0.2806  0.3933  0.6518
   42ccc     H4 1194   5.947   8.133  -1.229 -2.4413 -1.4352 -0.2815
   42ccc     C1 1195   5.836   8.034  -1.069 -0.1633 -0.4833  0.1057
   42ccc     H1 1196   5.747   8.068  -1.123  0.0983 -0.3560 -0.2525
   42ccc     H2 1197   5.816   8.047  -0.962  0.9034 -0.5700  0.3303
   42ccc     N1 1198   5.833   7.891  -1.094 -0.7828  0.5339  0.3158
   42ccc     C4 1199   5.849   7.853  -1.242  0.0277  0.2846 -0.1405
   42ccc     H7 1200   5.900   7.933  -1.296  1.4805 -0.2247  0.4269
   42ccc     H8 1201   5.754   7.843  -1.295 -0.9367 -0.9074  1.6776
   42ccc     C5 1202   5.927   7.724  -1.249  0.7880 -0.3123  0.2382
   42ccc     H9 1203   6.033   7.729  -1.222  1.1403 -3.1143 -0.2374
   42ccc    H10 1204   5.892   7.650  -1.176 -0.6956 -1.5156 -1.5730
   42ccc     C6 1205   5.895   7.670  -1.388 -0.1814  0.2240 -0.0343
   42ccc     O2 1206   5.816   7.575  -1.397  0.6638 -0.3987  0.1357
   42ccc     O3 1207   5.938   7.714  -1.493  0.2143 -0.1100 -0.1159
   42ccc     C7 1208   5.734   7.817  -1.011  0.1162  0.0919 -0.4621
   42ccc    H11 1209   5.739   7.707  -1.022 -1.9999 -0.0624 -0.2746
   42ccc    H12 1210   5.748   7.830  -0.903 -2.4333  0.0962 -0.0744
   42ccc     C8 1211   5.589   7.861  -1.046  0.3236  0.4165 -0.5563
   42ccc    H13 1212   5.568   7.960  -1.005 -2.0003 -0.8315  1.5109
   42ccc    H14 1213   5.568   7.850  -1.153 -0.1142  1.2718 -0.5652
   42ccc     C9 1214   5.491   7.771  -0.978 -0.1542  0.5351 -0.1871
   42ccc     O4 1215   5.424   7.696  -1.039  0.5886  0.1367 -0.1844
   42ccc     O5 1216   5.455   7.798  -0.866  0.2734 -0.5191  0.3682
   42ccc     O1 1217   5.998   8.203  -0.913  0.0310 -0.0559  0.1680
   43ccc     C3 1218   6.993   8.061  -1.206 -0.3786  0.2757 -0.0758
   43ccc     H5 1219   7.029   7.967  -1.162  1.1515  1.9171  2.3392
   43ccc     H6 1220   6.964   8.050  -1.312 -0.0096 -0.8620 -0.0721
   43ccc     C2 1221   7.089   8.180  -1.187 -0.3389  0.3168 -0.0828
   43ccc     H3 1222   7.053   8.274  -1.231 -0.2478 -0.5101 -2.0510
   43ccc     H4 1223   7.182   8.150  -1.237  0.0914  0.0735  0.8408
   43ccc     C1 1224   7.108   8.205  -1.035 -0.4170  0.3463 -0.5958
   43ccc     H1 1225   7.142   8.110  -0.993 -1.0594  0.2103 -0.3730
   43ccc     H2 1226   7.015   8.235  -0.986  0.1646  1.8047 -0.3431
   43ccc     N1 1227   7.215   8.304  -0.997 -0.1951 -0.2358 -0.3903
   43ccc     C4 1228   7.255   8.302  -0.856  0.2534 -0.3996  0.1432
   43ccc     H7 1229   7.349   8.358  -0.841  0.7801 -1.1099 -0.4497
   43ccc     H8 1230   7.275   8.199  -0.824  0.6404  0.5995  3.5272
   43ccc     C5 1231   7.142   8.358  -0.761 -0.2062  0.0628 -0.5808
   43ccc     H9 1232   7.102   8.455  -0.791  2.9727  1.7740  0.2466
   43ccc    H10 1233   7.061   8.287  -0.742  0.2038 -0.3740 -0.4248
   43ccc     C6 1234   7.208   8.375  -0.623 -0.2093 -1.1041  0.0955
   43ccc     O2 1235   7.237   8.271  -0.563 -0.1940 -0.1508  0.6273
   43ccc     O3 1236   7.186   8.477  -0.555 -0.0890  0.0410 -0.2660
   43ccc     C7 1237   7.186   8.430  -1.056 -0.4093  0.0011 -0.3721
   43ccc    H11 1238   7.176   8.427  -1.165  0.4912 -2.7754 -0.4665
   43ccc    H12 1239   7.083   8.454  -1.027  0.3462  2.3329  0.6861
   43ccc     C8 1240   7.282   8.541  -1.009  0.0437 -0.5295  0.2782
   43ccc    H13 1241   7.269   8.564  -0.902  1.3137 -1.4377  0.6450
   43ccc    H14 1242   7.388   8.515  -1.021 -0.5851 -1.9705 -3.0913
   43ccc     C9 1243   7.253   8.666  -1.084  0.4791  0.0460 -1.1236
   43ccc     O4 1244   7.259   8.672  -1.202 -0.0814  0.3094 -0.0292
   43ccc     O5 1245   7.206   8.765  -1.039 -0.3106 -0.1854  0.1983
   43ccc     O1 1246   6.876   8.085  -1.126 -0.4954  0.0602  0.1642
   44ccc     C3 1247   6.125   7.696  -0.840  0.8885  0.1740  0.0529
   44ccc     H5 1248   6.035   7.718  -0.899  0.3775  0.8710  1.0575
   44ccc     H6 1249   6.201   7.655  -0.906  0.8334 -0.7272  0.5399
   44ccc     C2 1250   6.095   7.590  -0.729  0.6104  0.0776  0.4792
   44ccc     H3 1251   6.058   7.498  -0.777 -1.1858  1.3851 -0.7186
   44ccc     H4 1252   6.006   7.614  -0.671  0.5130 -2.5327  1.5685
   44ccc     C1 1253   6.218   7.571  -0.645  0.2974  0.2084  0.3152
   44ccc     H1 1254   6.241   7.662  -0.590 -2.0717  0.6226  0.7269
   44ccc     H2 1255   6.303   7.564  -0.714  0.0299  1.0102 -0.1063
   44ccc     N1 1256   6.204   7.449  -0.557  0.1896  0.3657  0.0344
   44ccc     C4 1257   6.084   7.461  -0.475 -0.1745 -0.4814 -0.1799
   44ccc     H7 1258   5.996   7.447  -0.539 -0.7091 -1.7288  0.7818
   44ccc     H8 1259   6.072   7.563  -0.436 -0.7719 -0.4139 -0.5229
   44ccc     C5 1260   6.082   7.371  -0.355 -0.7991 -0.1973 -1.0380
   44ccc     H9 1261   6.108   7.268  -0.379 -1.3905 -0.1939 -1.7286
   44ccc    H10 1262   6.157   7.407  -0.283 -0.4459 -0.0787 -1.4624
   44ccc     C6 1263   5.947   7.375  -0.298 -0.3060 -0.4595 -0.0856
   44ccc     O2 1264   5.870   7.294  -0.345  0.3767 -0.6331  0.1532
   44ccc     O3 1265   5.929   7.403  -0.183  0.0910  0.4880  0.5223
   44ccc     C7 1266   6.208   7.317  -0.621 -0.4886 -0.3525  0.5364
   44ccc    H11 1267   6.212   7.247  -0.536  0.9576  0.0673  0.8532
   44ccc    H12 1268   6.120   7.307  -0.685 -0.8598  3.8731  0.0966
   44ccc     C8 1269   6.336   7.294  -0.704 -0.7753  0.6744  0.2714
   44ccc    H13 1270   6.329   7.348  -0.799 -2.9805  0.4398  0.2551
   44ccc    H14 1271   6.425   7.326  -0.648  1.0103  1.4337 -2.7720
   44ccc     C9 1272   6.360   7.149  -0.735 -0.1863 -0.4270  0.3098
   44ccc     O4 1273   6.467   7.098  -0.717 -0.3338 -0.8260  0.2936
   44ccc     O5 1274   6.264   7.081  -0.777  0.1435 -0.1620 -0.2475
   44ccc     O1 1275   6.178   7.816  -0.778  0.3745  0.3114 -0.6336
   45ccc     C3 1276   6.354   7.732   0.619  0.8764 -0.8193  0.0580
   45ccc     H5 1277   6.300   7.637   0.612  3.0609 -2.0010 -2.6146
   45ccc     H6 1278   6.453   7.703   0.658  1.0405  1.0779  1.1880
   45ccc     C2 1279   6.281   7.814   0.730 -0.3451 -0.0799  0.5844
   45ccc     H3 1280   6.175   7.825   0.701 -0.0829 -0.9830 -0.8088
   45ccc     H4 1281   6.305   7.920   0.720  1.0717 -0.4510 -0.1602
   45ccc     C1 1282   6.310   7.757   0.867  0.1542 -0.1067 -0.3163
   45ccc     H1 1283   6.273   7.654   0.864 -1.5645  0.3013  2.7778
   45ccc     H2 1284   6.248   7.812   0.939  1.7610  0.5745  0.6359
   45ccc     N1 1285   6.455   7.762   0.907  0.8511  0.0604  0.8698
   45ccc     C4 1286   6.499   7.661   1.003  0.2774  0.7532 -0.2016
   45ccc     H7 1287   6.447   7.669   1.099 -0.8508 -0.5523 -0.6745
   45ccc     H8 1288   6.605   7.678   1.027  0.4715 -2.0949  1.2928
   45ccc     C5 1289   6.484   7.522   0.949  0.9937  0.0931  0.1210
   45ccc     H9 1290   6.380   7.490   0.934  1.4962 -2.4199  1.3497
   45ccc    H10 1291   6.522   7.502   0.848  0.9282 -2.9279  0.5811
   45ccc     C6 1292   6.552   7.426   1.041 -0.0527 -0.1405 -0.0593
   45ccc     O2 1293   6.479   7.352   1.103 -0.4659  0.4617 -0.3748
   45ccc     O3 1294   6.674   7.415   1.051  0.1969  0.3748  0.0860
   45ccc     C7 1295   6.495   7.899   0.950 -0.9291  0.0739 -0.3149
   45ccc    H11 1296   6.603   7.892   0.968 -1.2988 -1.8445  1.6935
   45ccc    H12 1297   6.483   7.977   0.875 -1.2685 -0.5587 -0.9346
   45ccc     C8 1298   6.419   7.962   1.074  0.0852 -0.3267  0.1537
   45ccc    H13 1299   6.311   7.966   1.056 -0.0482  0.9773  1.1311
   45ccc    H14 1300   6.423   7.893   1.159 -2.9909 -2.5705 -1.3324
   45ccc     C9 1301   6.469   8.102   1.106  0.1802 -0.2999  0.0017
   45ccc     O4 1302   6.454   8.198   1.032  0.1405 -0.1921 -0.0515
   45ccc     O5 1303   6.560   8.117   1.187  0.1430 -0.3533 -0.1480
   45ccc     O1 1304   6.354   7.792   0.487  0.2687  0.4052  0.3154
   46ccc     C3 1305   5.703   7.978   0.025  0.9534  0.1315 -0.2867
   46ccc     H5 1306   5.688   7.951   0.131  0.5256  0.2269 -0.3223
   46ccc     H6 1307   5.634   8.062   0.012 -0.3648 -0.5194  1.9336
   46ccc     C2 1308   5.664   7.864  -0.076 -0.2174  0.7218  0.3138
   46ccc     H3 1309   5.732   7.781  -0.059  1.2613  1.5954 -1.0807
   46ccc     H4 1310   5.684   7.891  -0.180  1.0859 -2.6348 -0.4212
   46ccc     C1 1311   5.512   7.826  -0.066 -0.6175 -0.4416  0.5201
   46ccc     H1 1312   5.450   7.917  -0.073 -1.1893 -0.9433 -1.8953
   46ccc     H2 1313   5.505   7.790   0.038 -2.2465  0.7999  0.8800
   46ccc     N1 1314   5.465   7.724  -0.172  0.1290  0.4216 -0.3799
   46ccc     C4 1315   5.435   7.781  -0.302 -0.2684  0.4932 -0.5642
   46ccc     H7 1316   5.391   7.698  -0.360 -0.3351 -0.6792  1.0955
   46ccc     H8 1317   5.513   7.823  -0.367 -0.1076  0.2255 -0.5502
   46ccc     C5 1318   5.327   7.884  -0.296  0.2624 -0.3829 -0.0090
   46ccc     H9 1319   5.246   7.861  -0.226  1.3141 -2.1845  0.6867
   46ccc    H10 1320   5.370   7.979  -0.262  0.7821 -0.3889 -0.6173
   46ccc     C6 1321   5.256   7.895  -0.425 -0.0791  0.1137  0.2875
   46ccc     O2 1322   5.312   7.887  -0.534  0.6678 -0.0353  0.4991
   46ccc     O3 1323   5.132   7.915  -0.425  0.2829  0.1867 -0.3571
   46ccc     C7 1324   5.546   7.611  -0.181 -0.8996  0.7068 -0.4795
   46ccc    H11 1325   5.529   7.551  -0.271 -0.4513  1.0005 -0.7685
   46ccc    H12 1326   5.650   7.644  -0.195  0.6840 -3.8227 -1.0177
   46ccc     C8 1327   5.539   7.525  -0.050 -0.7826  0.6665  0.1739
   46ccc    H13 1328   5.565   7.571   0.046 -0.3004  0.5391  0.1085
   46ccc    H14 1329   5.434   7.493  -0.039 -0.8043  0.7973  0.3441
   46ccc     C9 1330   5.619   7.404  -0.065 -0.2711 -0.1878  0.5345
   46ccc     O4 1331   5.585   7.321  -0.151 -0.2231 -0.0111  0.5984
   46ccc     O5 1332   5.720   7.393   0.002 -1.0169  0.1581 -0.3307
   46ccc     O1 1333   5.837   8.020  -0.002  0.0164  0.1791 -0.0961
   47SOL     OW 1334   7.085   1.536   6.255 -0.8001 -0.0061 -0.1443
   47SOL    HW1 1335   7.091   1.537   6.159 -0.1421 -0.8076 -0.1217
   47SOL    HW2 1336   7.144   1.606   6.284 -0.3720 -0.2982 -0.3022
   48SOL     OW 1337   2.644   1.950   4.270  0.3949  0.0953  0.7195
   48SOL    HW1 1338   2.718   2.006   4.291  0.1160  1.5926 -1.8601
   48SOL    HW2 1339   2.682   1.876   4.224  0.3973  0.1487  0.6370
   49SOL     OW 1340   3.204   5.942   2.473 -0.2596 -0.2199 -0.3471
   49SOL    HW1 1341   3.181   6.009   2.538 -2.4270 -0.8232 -0.4271
   49SOL    HW2 1342   3.157   5.967   2.394 -0.4111 -1.3578 -0.6412
   50SOL     OW 1343   7.105   2.096   5.494 -0.2044 -0.0585  0.4735
   50SOL    HW1 1344   7.074   2.008   5.517 -1.6440  0.7186  1.6608
   50SOL    HW2 1345   7.197   2.083   5.468 -0.7606 -2.0896 -0.7314
   51SOL     OW 1346   6.276   7.396   1.800  0.0450 -0.5840  0.0899
   51SOL    HW1 1347   6.244   7.408   1.711 -0.0780 -0.9353  0.0828
   51SOL    HW2 1348   6.231   7.317   1.831 -0.5588  0.0193  0.7692
   52SOL     OW 1349   2.693   0.402   2.990  0.2763  0.2721  0.4284
   52SOL    HW1 1350   2.751   0.385   3.064 -0.6151  0.5510  1.1974
   52SOL    HW2 1351   2.616   0.348   3.006 -0.0529  0.5641 -0.1438
   53SOL     OW 1352   2.758   8.483   0.721  0.4007 -0.7406  0.4112
   53SOL    HW1 1353   2.801   8.527   0.795  1.7054 -0.6645 -0.3493
   53SOL    HW2 1354   2.823   8.420   0.690  0.9918  0.9922 -2.2589
   54SOL     OW 1355   6.183   1.780   7.193  0.2700 -0.1667  0.5446
   54SOL    HW1 1356   6.213   1.799   7.104  0.8386 -0.6623  0.6246
   54SOL    HW2 1357   6.259   1.795   7.249  0.2311 -0.9184  0.8128
   55SOL     OW 1358   0.092   2.269   0.536  0.2111  0.3571  0.0197
   55SOL    HW1 1359   0.112   2.190   0.485  1.3028  0.2082  0.6463
   55SOL    HW2 1360   0.010   2.301   0.499 -0.8340 -1.6626  0.4184
   56SOL     OW 1361   0.900   3.636   0.429 -0.3436  0.0321  0.4599
   56SOL    HW1 1362   0.913   3.633   0.524  1.2400 -1.0776  0.2613
   56SOL    HW2 1363   0.810   3.664   0.417 -0.5217  0.3366  2.2902
   57SOL     OW 1364   3.641   1.238   4.142 -0.0091  0.3927  0.1343
   57SOL    HW1 1365   3.645   1.187   4.223  1.7005  0.5016  0.1599
   57SOL    HW2 1366   3.628   1.173   4.073  0.7377  0.0659  0.2974
   58SOL     OW 1367   0.644   2.209   1.151  0.3678 -0.0690  0.2822
   58SOL    HW1 1368   0.614   2.232   1.063 -1.2858 -0.1297  0.8013
   58SOL    HW2 1369   0.740   2.215   1.146  0.2618  0.8678 -1.2463
   59SOL     OW 1370   6.131   3.421   2.517 -0.1794 -0.1207 -0.4422
   59SOL    HW1 1371   6.062   3.452   2.459 -0.6286 -1.0783 -0.4376
   59SOL    HW2 1372   6.150   3.332   2.487  0.9661  0.0751 -0.3591
   60SOL     OW 1373   1.024   3.707   1.971  0.1278 -0.1292  0.1787
   60SOL    HW1 1374   1.049   3.747   2.055  1.2261  0.6428 -0.4921
   60SOL    HW2 1375   1.100   3.720   1.915  0.0914 -2.1754 -0.4408
   61SOL     OW 1376   7.256   6.520   2.724  0.0306 -0.6174 -0.1191
   61SOL    HW1 1377   7.214   6.503   2.640  0.8379 -1.8760 -0.2886
   61SOL    HW2 1378   7.217   6.456   2.784 -1.1690  0.8271  0.7044
   62SOL     OW 1379   5.437   4.669   1.334  0.2732 -0.2183 -0.0256
   62SOL    HW1 1380   5.444   4.763   1.318 -0.2252 -0.5502 -2.6558
   62SOL    HW2 1381   5.360   4.660   1.391 -0.2068  0.8991 -0.4726
   63SOL     OW 1382   6.342   1.094   7.707 -0.8292 -0.0431 -0.0670
   63SOL    HW1 1383   6.378   1.132   7.787 -0.1276 -1.1568  0.1726
   63SOL    HW2 1384   6.265   1.045   7.737 -0.9824  0.1250 -0.1845
   64SOL     OW 1385   4.781   5.405   1.268  0.1940 -0.7916 -0.4358
   64SOL    HW1 1386   4.851   5.371   1.324 -0.6763 -1.0600  0.5246
   64SOL    HW2 1387   4.825   5.427   1.185  1.5506 -0.1762  0.4108
   65SOL     OW 1388   1.656   5.116   7.403 -0.1019 -0.0726  0.4002
   65SOL    HW1 1389   1.633   5.173   7.476 -1.3502  0.2236 -0.1973
   65SOL    HW2 1390   1.593   5.045   7.406 -0.8243  0.4650 -0.9570
   66SOL     OW 1391   4.618   5.782   5.352 -0.2522  0.0161  0.2897
   66SOL    HW1 1392   4.599   5.691   5.375 -0.8567 -0.2726 -1.2126
   66SOL    HW2 1393   4.645   5.778   5.260 -1.1483  1.4519 -0.0627
   67SOL     OW 1394   2.944   4.188   0.385 -0.7408  0.5916 -0.3068
   67SOL    HW1 1395   2.975   4.227   0.303 -1.8377 -0.0878 -1.0838
   67SOL    HW2 1396   2.928   4.096   0.363  1.2934 -0.2151  1.3486
   68SOL     OW 1397   0.519   1.535   8.399  0.1336 -0.0317 -0.0150
   68SOL    HW1 1398   0.536   1.471   8.329  2.3092  0.6006 -0.1362
   68SOL    HW2 1399   0.581   1.511   8.468 -0.0125  1.0879  0.5191
   69SOL     OW 1400   0.807   6.444   6.131  0.5897  0.3242  0.1522
   69SOL    HW1 1401   0.734   6.428   6.070 -0.9977  1.2224  1.7460
   69SOL    HW2 1402   0.852   6.359   6.136 -1.2754 -0.7086  0.2936
   70SOL     OW 1403   5.241   4.655   6.808  0.5724  0.2451 -0.1940
   70SOL    HW1 1404   5.238   4.568   6.769 -0.7316 -1.3265  3.0227
   70SOL    HW2 1405   5.158   4.696   6.783  0.3703 -0.1749 -0.2138
   71SOL     OW 1406   2.350   6.063   3.314 -0.0600 -0.4460  0.6799
   71SOL    HW1 1407   2.403   6.135   3.279 -1.4737  0.4234  0.2503
   71SOL    HW2 1408   2.292   6.105   3.378 -1.5005 -1.0500 -0.1972
   72SOL     OW 1409   4.925   4.375   3.657 -0.1093 -0.4662  0.4800
   72SOL    HW1 1410   4.925   4.293   3.608 -0.6199 -0.5565  0.6316
   72SOL    HW2 1411   4.838   4.412   3.644  0.3335  0.3975 -0.1485
   73SOL     OW 1412   3.886   2.008   6.366 -0.8261 -0.3813 -0.1665
   73SOL    HW1 1413   3.944   2.053   6.428 -0.4045 -0.1641 -0.7169
   73SOL    HW2 1414   3.939   1.937   6.331 -0.6877  0.1625 -1.0981
   74SOL     OW 1415   3.656   0.176   8.211 -0.3495 -0.3312  0.3326
   74SOL    HW1 1416   3.714   0.228   8.155  2.3286 -1.8537  1.4879
   74SOL    HW2 1417   3.682   0.085   8.194 -1.0128 -0.9506  2.3706
   75SOL     OW 1418   3.693   3.782   1.774 -0.0219  0.4568  0.4543
   75SOL    HW1 1419   3.776   3.829   1.762 -0.3448  0.7164 -0.8466
   75SOL    HW2 1420   3.626   3.850   1.767 -0.3510  0.3059  1.8454
   76SOL     OW 1421   5.068   4.015   0.997 -0.1007  0.2475  0.6003
   76SOL    HW1 1422   5.130   4.051   0.933  0.7357  1.1485  1.8683
   76SOL    HW2 1423   4.996   4.078   0.999 -0.1010  0.2479  0.5751
   77SOL     OW 1424   6.513   7.701   1.356  0.1704  0.3119  0.7462
   77SOL    HW1 1425   6.466   7.622   1.329  1.5571 -0.5137  0.6147
   77SOL    HW2 1426   6.556   7.732   1.276 -0.5633  1.3746  0.7403
   78SOL     OW 1427   4.080   7.726   6.477  0.1592 -0.0751 -0.0856
   78SOL    HW1 1428   4.089   7.773   6.560 -2.2936  2.3336 -1.0441
   78SOL    HW2 1429   4.151   7.760   6.422 -0.5220  1.2527 -0.1793
   79SOL     OW 1430   0.397   2.328   5.834 -0.1104 -0.8024 -0.3980
   79SOL    HW1 1431   0.439   2.348   5.918  0.6228 -0.4967 -0.8253
   79SOL    HW2 1432   0.322   2.387   5.830 -1.3560 -2.2201  0.9426
   80SOL     OW 1433   4.130   2.815   4.420  0.0324  0.1509  0.0189
   80SOL    HW1 1434   4.074   2.745   4.455 -0.3565  1.5067  2.2651
   80SOL    HW2 1435   4.219   2.781   4.428 -0.2734 -1.1034 -1.4309
   81SOL     OW 1436   1.101   4.736   7.932 -0.3101  0.1888 -0.4999
   81SOL    HW1 1437   1.134   4.824   7.912 -0.5383  0.8127  1.6446
   81SOL    HW2 1438   1.006   4.746   7.938 -0.7825 -1.0209 -3.8169
   82SOL     OW 1439   7.317   1.183   4.636 -0.0475  0.2704 -0.0190
   82SOL    HW1 1440   7.225   1.162   4.656  0.7268 -2.2036  1.2904
   82SOL    HW2 1441   7.317   1.203   4.543 -2.0945  1.5623  0.1934
   83SOL     OW 1442   7.059   7.632   3.805  0.2153 -0.2015 -0.3851
   83SOL    HW1 1443   6.976   7.673   3.829 -0.2759 -1.9304  1.1469
   83SOL    HW2 1444   7.041   7.584   3.725  0.5143  1.5965 -1.5877
   84SOL     OW 1445   4.350   8.117   3.902  0.3427 -0.6079 -0.4072
   84SOL    HW1 1446   4.361   8.046   3.839 -1.4017 -1.2969  0.0068
   84SOL    HW2 1447   4.257   8.113   3.926  0.7281  0.3481  1.3643
   85SOL     OW 1448   0.810   7.600   2.693 -0.0568  0.1705  0.4351
   85SOL    HW1 1449   0.881   7.571   2.637 -0.4138 -0.6558  0.3955
   85SOL    HW2 1450   0.789   7.524   2.748 -0.4329  0.6232  0.9365
   86SOL     OW 1451   3.789   3.313   1.853 -0.4192  0.1307  0.4705
   86SOL    HW1 1452   3.721   3.322   1.787 -0.7219 -0.6731  0.6622
   86SOL    HW2 1453   3.858   3.263   1.809  0.3616  1.5283  0.0562
   87SOL     OW 1454   2.153   8.280   0.996  0.0749 -0.1661  0.2594
   87SOL    HW1 1455   2.168   8.369   0.964  1.6767 -0.9700 -1.4029
   87SOL    HW2 1456   2.161   8.286   1.091  0.4898  1.3915  0.1427
   88SOL     OW 1457   1.805   7.616   3.157  0.5493 -0.1741 -0.0490
   88SOL    HW1 1458   1.746   7.679   3.200  1.0229 -0.1392  0.5612
   88SOL    HW2 1459   1.755   7.535   3.153 -0.9388  0.7191 -2.8248
   89SOL     OW 1460   5.139   1.762   3.298  0.3501 -0.0320 -0.6966
   89SOL    HW1 1461   5.079   1.837   3.294  1.3618  0.7598 -1.6024
   89SOL    HW2 1462   5.095   1.700   3.356  0.0965  1.8356  1.2498
   90SOL     OW 1463   7.980   2.112   1.421  0.0846 -0.6333  0.5153
   90SOL    HW1 1464   8.062   2.065   1.440  1.2302  1.5298  1.2973
   90SOL    HW2 1465   7.935   2.117   1.505 -0.3423 -0.9131  0.3018
   91SOL     OW 1466   7.181   5.378   8.385 -0.3289 -0.3355 -0.3939
   91SOL    HW1 1467   7.166   5.345   8.473  1.4721  0.4822  0.2626
   91SOL    HW2 1468   7.154   5.470   8.389 -0.1268 -0.2636 -0.6758
   92SOL     OW 1469   2.954   3.679   8.545  0.0753  0.0573  0.1826
   92SOL    HW1 1470   2.868   3.710   8.575  0.2831  0.1590  0.6756
   92SOL    HW2 1471   3.009   3.757   8.546  0.1619  0.0033 -0.1964
   93SOL     OW 1472   8.375   5.252   2.281  0.0076 -0.3020  0.2866
   93SOL    HW1 1473   8.339   5.304   2.352 -0.1200  1.9800 -1.3696
   93SOL    HW2 1474   8.469   5.244   2.302 -0.1285 -0.1225  0.9716
   94SOL     OW 1475   6.460   0.740   5.017 -0.3623  0.1648 -0.5287
   94SOL    HW1 1476   6.501   0.682   4.953  1.2372  1.9302 -1.1872
   94SOL    HW2 1477   6.395   0.685   5.061  1.2475 -2.1793 -0.9171
   95SOL     OW 1478   0.948   5.942   3.406 -0.3660  0.5027  0.2204
   95SOL    HW1 1479   0.869   5.939   3.353  0.3031  0.3176 -0.7945
   95SOL    HW2 1480   0.948   5.859   3.455 -0.7491  0.4682  0.1589
   96SOL     OW 1481   0.547   0.861   2.172  0.0140  0.8177 -0.2320
   96SOL    HW1 1482   0.639   0.845   2.149  0.2519  0.1453  1.1156
   96SOL    HW2 1483   0.517   0.923   2.106  1.6617  1.6500 -0.2533
   97SOL     OW 1484   6.465   8.555   6.683 -0.1965 -0.0854 -0.1520
   97SOL    HW1 1485   6.467   8.623   6.615 -1.5812  1.0946  0.9351
   97SOL    HW2 1486   6.549   8.564   6.729  0.8409 -1.0200 -1.7475
   98SOL     OW 1487   5.055   2.363   4.149  0.5149 -0.3454  0.6549
   98SOL    HW1 1488   5.068   2.324   4.235  0.7982 -1.3591  0.1680
   98SOL    HW2 1489   4.960   2.357   4.134  0.3288  0.7355  1.2952
   99SOL     OW 1490   7.096   2.728   5.960 -0.4350 -0.4404 -0.2766
   99SOL    HW1 1491   7.142   2.660   5.911  0.6152  0.3365 -0.4273
   99SOL    HW2 1492   7.024   2.683   6.003  1.0286 -1.9157  0.7390
  100SOL     OW 1493   7.924   0.469   8.067 -0.3535  0.0470 -0.4640
  100SOL    HW1 1494   7.934   0.376   8.091 -1.3315 -0.5778 -2.2986
  100SOL    HW2 1495   7.945   0.516   8.147  0.6136 -1.7352  0.4102
  101SOL     OW 1496   6.685   2.945   3.996  0.3529  0.3513 -0.4565
  101SOL    HW1 1497   6.644   3.030   4.008  0.5993  0.4678 -0.4468
  101SOL    HW2 1498   6.673   2.901   4.080  0.6254  0.5470 -0.3147
  102SOL     OW 1499   1.020   0.269   1.560 -0.6342 -0.0279  0.3115
  102SOL    HW1 1500   0.969   0.189   1.560 -0.8281  0.0897 -0.3646
  102SOL    HW2 1501   0.958   0.338   1.585 -1.1313  0.2937 -1.6434
  103SOL     OW 1502   6.088   1.916   0.645  0.1530  0.2243 -0.7285
  103SOL    HW1 1503   6.025   1.952   0.706 -1.1196 -0.2241 -1.7188
  103SOL    HW2 1504   6.121   1.991   0.596 -1.8266  0.2481 -2.1790
  104SOL     OW 1505   3.741   3.948   7.660 -0.7183 -0.4038  0.4801
  104SOL    HW1 1506   3.706   3.893   7.590 -0.2307 -1.7397  1.2431
  104SOL    HW2 1507   3.813   3.896   7.697  2.8434  2.5515 -1.6450
  105SOL     OW 1508   4.525   2.817   4.812  0.6192  0.5003  0.1310
  105SOL    HW1 1509   4.535   2.722   4.808  2.3271  0.6687 -0.4315
  105SOL    HW2 1510   4.445   2.831   4.863  0.6115 -1.2181  0.6451
  106SOL     OW 1511   6.864   5.449   1.875 -0.4792 -0.6778  0.0060
  106SOL    HW1 1512   6.827   5.494   1.800 -0.4689 -0.2303  0.2670
  106SOL    HW2 1513   6.958   5.443   1.856 -0.0958  1.4320  0.9716
  107SOL     OW 1514   0.203   4.730   1.585  0.4364 -0.6554 -0.4986
  107SOL    HW1 1515   0.215   4.666   1.656 -2.5642  0.2527  0.9858
  107SOL    HW2 1516   0.200   4.677   1.506 -2.4691 -2.5754  0.7140
  108SOL     OW 1517   2.307   3.473   7.231 -0.0661  0.3230 -0.2365
  108SOL    HW1 1518   2.312   3.555   7.280  3.5200 -0.2017  0.5010
  108SOL    HW2 1519   2.279   3.408   7.296 -0.9735  0.5714 -0.3572
  109SOL     OW 1520   5.195   6.113   1.501 -0.4149  0.1367 -0.0868
  109SOL    HW1 1521   5.099   6.119   1.496 -0.2612  3.4973 -2.1687
  109SOL    HW2 1522   5.221   6.185   1.559  0.8995 -2.0605  2.2793
  110SOL     OW 1523   6.648   1.144   1.100  0.2070 -0.0807  0.2774
  110SOL    HW1 1524   6.694   1.073   1.145  0.6363 -0.1382 -0.2354
  110SOL    HW2 1525   6.687   1.224   1.135  0.4053 -0.1204  0.1473
  111SOL     OW 1526   6.764   6.599   0.842 -0.0169 -0.1655 -0.7306
  111SOL    HW1 1527   6.736   6.562   0.759  0.3774 -0.8634 -0.5603
  111SOL    HW2 1528   6.808   6.527   0.887 -1.9413 -0.3751  0.9399
  112SOL     OW 1529   2.622   7.596   2.944  0.0368  0.2591  0.1271
  112SOL    HW1 1530   2.633   7.542   3.022  1.8184 -1.4988 -1.2664
  112SOL    HW2 1531   2.537   7.570   2.908  0.0788 -0.3020  0.4348
  113SOL     OW 1532   5.316   2.005   3.270  0.3166 -0.3945  0.2674
  113SOL    HW1 1533   5.341   1.967   3.186 -2.2315  1.2909 -1.3556
  113SOL    HW2 1534   5.247   1.948   3.303 -0.2777  0.1950  0.0699
  114SOL     OW 1535   1.739   1.169   3.225 -0.1454 -0.3101 -0.3405
  114SOL    HW1 1536   1.740   1.141   3.134  0.3108 -1.0918 -0.1005
  114SOL    HW2 1537   1.831   1.183   3.247 -0.2824  0.2996 -0.1194
  115SOL     OW 1538   2.131   5.129   4.076 -0.2814  0.4463  0.1445
  115SOL    HW1 1539   2.131   5.203   4.015  2.6445  0.3102 -0.1786
  115SOL    HW2 1540   2.080   5.062   4.031 -1.8100  1.7566 -0.1764
  116SOL     OW 1541   1.084   0.938   6.622 -0.3737  0.3813  0.2062
  116SOL    HW1 1542   1.135   0.948   6.702  0.4560  0.2065 -0.2939
  116SOL    HW2 1543   1.015   0.876   6.645  0.3934 -0.3637  0.5354
  117SOL     OW 1544   3.267   0.047   7.686  0.0662 -0.2464 -0.1591
  117SOL    HW1 1545   3.289  -0.044   7.707  1.3586  0.0472 -0.1876
  117SOL    HW2 1546   3.334   0.099   7.730  0.0726  0.6259 -1.1589
  118SOL     OW 1547   2.086   4.281   1.198  0.2362 -0.3832 -0.3976
  118SOL    HW1 1548   2.046   4.197   1.223 -0.8670  0.2518  0.0624
  118SOL    HW2 1549   2.129   4.311   1.279  1.1563 -0.7779 -0.7274
  119SOL     OW 1550   4.669   6.115   7.832  0.1774  0.2057 -0.1777
  119SOL    HW1 1551   4.594   6.167   7.800  0.1919 -0.3871 -1.2329
  119SOL    HW2 1552   4.677   6.138   7.924 -1.8774 -0.3722  0.1941
  120SOL     OW 1553   7.523   5.785   1.934 -0.0089 -0.0544  0.0005
  120SOL    HW1 1554   7.510   5.860   1.876 -0.1997 -0.6085 -0.6853
  120SOL    HW2 1555   7.610   5.753   1.911 -1.1128 -1.8893 -1.8963
  121SOL     OW 1556   0.762   2.530   7.750 -0.2551  0.2036 -0.0871
  121SOL    HW1 1557   0.729   2.536   7.660  0.4096  0.2671 -0.3319
  121SOL    HW2 1558   0.696   2.576   7.802  0.3579  1.9797 -0.8143
  122SOL     OW 1559   7.043   3.276   7.417 -0.7146 -0.1958 -0.5753
  122SOL    HW1 1560   7.026   3.359   7.463 -0.5421 -1.2526  1.5492
  122SOL    HW2 1561   7.104   3.299   7.347  0.2922  1.3033  0.7129
  123SOL     OW 1562   3.313   1.591   6.181 -0.2339 -0.0875 -0.0862
  123SOL    HW1 1563   3.380   1.626   6.239 -0.3696 -1.7631  1.1318
  123SOL    HW2 1564   3.353   1.595   6.094  0.0999  2.1196  0.0995
  124SOL     OW 1565   2.702   3.470   8.060 -0.1221 -0.2660 -0.2155
  124SOL    HW1 1566   2.743   3.499   7.979 -0.5354  0.2622 -0.2468
  124SOL    HW2 1567   2.739   3.527   8.127 -0.6159  0.0660 -0.2120
  125SOL     OW 1568   8.186   1.874   4.216 -0.2741  0.1047  0.1291
  125SOL    HW1 1569   8.190   1.874   4.312 -1.4802  1.9107  0.2276
  125SOL    HW2 1570   8.131   1.799   4.194  1.9472 -1.8164  0.6505
  126SOL     OW 1571   6.574   1.744   1.315  0.1038 -0.1213  0.2421
  126SOL    HW1 1572   6.588   1.669   1.257  0.4243  1.0489 -1.2685
  126SOL    HW2 1573   6.479   1.758   1.314 -0.2832 -1.9030  2.4585
  127SOL     OW 1574   7.489   0.888   5.285 -0.6772 -0.1676  0.2610
  127SOL    HW1 1575   7.550   0.881   5.357 -0.6489 -0.1049  0.2435
  127SOL    HW2 1576   7.493   0.980   5.258 -1.8058  0.1708  1.1588
  128SOL     OW 1577   6.327   2.111   8.414 -0.6214  0.7064  0.1110
  128SOL    HW1 1578   6.408   2.066   8.391 -0.2673  1.7441 -0.7536
  128SOL    HW2 1579   6.261   2.071   8.358 -0.8524 -0.5430  1.2249
  129SOL     OW 1580   1.174   7.496   3.172  0.1863 -0.0904 -0.0508
  129SOL    HW1 1581   1.258   7.501   3.128  0.3765  1.2166  0.4221
  129SOL    HW2 1582   1.194   7.466   3.261  0.1373  0.1070  0.0272
  130SOL     OW 1583   3.641   0.659   1.990  0.1979 -0.4036 -0.2333
  130SOL    HW1 1584   3.629   0.754   1.996  1.0273 -0.2211 -1.1833
  130SOL    HW2 1585   3.631   0.640   1.896  0.2698 -1.2226 -0.0791
  131SOL     OW 1586   1.760   7.494   3.855 -0.0876  0.2091 -0.0435
  131SOL    HW1 1587   1.768   7.498   3.951 -2.4084 -1.0390  0.2668
  131SOL    HW2 1588   1.791   7.407   3.832 -1.2174 -0.1667 -0.1931
  132SOL     OW 1589   0.542   3.183   8.417  0.0709  0.4046 -0.4531
  132SOL    HW1 1590   0.571   3.247   8.352  2.9039 -0.7842 -0.5245
  132SOL    HW2 1591   0.598   3.200   8.493  1.7483 -2.6008 -0.8656
  133SOL     OW 1592   5.556   7.084   1.433 -0.5345 -0.7172  0.1037
  133SOL    HW1 1593   5.484   7.074   1.371 -1.3613  1.3368  0.6504
  133SOL    HW2 1594   5.628   7.120   1.381 -1.1768  0.8546  0.2415
  134SOL     OW 1595   2.962   7.007   7.642 -0.2835  0.1046  0.4579
  134SOL    HW1 1596   2.869   6.993   7.625 -0.1877 -0.8235  0.6368
  134SOL    HW2 1597   2.987   6.937   7.702  0.7527 -0.2430 -0.3412
  135SOL     OW 1598   7.399   1.007   2.887  0.2524 -0.3321  0.2621
  135SOL    HW1 1599   7.326   1.009   2.949 -0.6972  1.4669 -0.8477
  135SOL    HW2 1600   7.357   0.991   2.802  1.0783  1.1582 -0.4531
  136SOL     OW 1601   6.872   4.886   7.407  0.0719 -0.1060 -0.1795
  136SOL    HW1 1602   6.806   4.954   7.423  0.3573  0.2249 -0.4188
  136SOL    HW2 1603   6.950   4.934   7.380 -0.4117 -0.6155 -2.7717
  137SOL     OW 1604   3.510   5.536   1.609 -0.9269  0.0578  1.1150
  137SOL    HW1 1605   3.577   5.468   1.618  0.9198  1.6329 -0.0747
  137SOL    HW2 1606   3.518   5.589   1.689 -2.7149 -1.3097  2.2895
  138SOL     OW 1607   5.715   0.841   6.716 -0.5881  0.1029  0.0346
  138SOL    HW1 1608   5.682   0.925   6.683 -2.2111 -0.9357 -1.1095
  138SOL    HW2 1609   5.640   0.782   6.709 -0.4180 -0.7323  3.7237
  139SOL     OW 1610   5.091   7.160   3.039 -0.3571 -0.0463 -0.5612
  139SOL    HW1 1611   5.083   7.082   3.093  0.3264  0.3170  0.0697
  139SOL    HW2 1612   5.127   7.128   2.956 -0.0515 -0.4008 -0.2967
  140SOL     OW 1613   5.703   2.563   5.257 -0.4549 -0.8447  0.1169
  140SOL    HW1 1614   5.778   2.618   5.234 -1.4323  1.4385  1.9920
  140SOL    HW2 1615   5.634   2.590   5.196 -0.2890 -1.6618 -0.4443
  141SOL     OW 1616   1.845   0.518   1.114 -0.0167  0.0060 -0.1322
  141SOL    HW1 1617   1.903   0.487   1.044  0.4681 -0.1920  0.3522
  141SOL    HW2 1618   1.765   0.545   1.068  0.5593  0.5639 -0.8460
  142SOL     OW 1619   6.223   3.548   7.954  0.4087  0.5683  0.4817
  142SOL    HW1 1620   6.155   3.500   8.002  0.1956 -0.4502 -0.7692
  142SOL    HW2 1621   6.201   3.640   7.968 -0.5134  0.2739  1.1118
  143SOL     OW 1622   2.007   7.412   5.548 -0.6745  0.3060 -0.0768
  143SOL    HW1 1623   2.081   7.367   5.590  0.5121  1.8667 -0.4259
  143SOL    HW2 1624   2.047   7.483   5.499 -2.3207  0.4098 -1.3405
  144SOL     OW 1625   3.033   5.490   0.996 -0.1198 -0.8214  0.0200
  144SOL    HW1 1626   2.959   5.550   1.005  1.9648  1.9087  0.2607
  144SOL    HW2 1627   3.045   5.453   1.084  0.5094  0.9492  0.7172
  145SOL     OW 1628   1.827   5.627   0.254  0.2352 -0.0205  0.7992
  145SOL    HW1 1629   1.755   5.689   0.261  0.6054  0.4889  0.2141
  145SOL    HW2 1630   1.885   5.649   0.327  1.3211  1.6118 -0.4787
  146SOL     OW 1631   5.910   0.464   5.439  0.2451 -0.0107 -0.1531
  146SOL    HW1 1632   6.005   0.461   5.449  0.4664 -0.2288 -1.9203
  146SOL    HW2 1633   5.879   0.383   5.480  0.8374 -0.0219  0.2807
  147SOL     OW 1634   4.251   7.010   4.684 -0.0427 -0.8908  0.0309
  147SOL    HW1 1635   4.276   6.923   4.715 -0.6327 -1.1014 -0.0630
  147SOL    HW2 1636   4.197   6.993   4.606 -0.5777 -0.4670  0.3005
  148SOL     OW 1637   0.632   8.070   6.907  0.0780 -0.5187 -0.6060
  148SOL    HW1 1638   0.559   8.021   6.945  0.3036 -0.3811  0.0265
  148SOL    HW2 1639   0.709   8.032   6.949  0.1831  1.1926  0.8689
  149SOL     OW 1640   5.885   2.863   0.494 -0.4740 -0.5352  0.1400
  149SOL    HW1 1641   5.938   2.832   0.568 -0.1712 -2.0440 -0.6579
  149SOL    HW2 1642   5.803   2.815   0.501 -1.4989  1.2334  0.9318
  150SOL     OW 1643   6.611   1.577   4.356 -0.2929 -0.4428  0.0888
  150SOL    HW1 1644   6.572   1.603   4.439  0.8080 -0.1344  0.5189
  150SOL    HW2 1645   6.648   1.657   4.320 -0.5201 -0.6277 -0.5659
  151SOL     OW 1646   7.539   3.763   4.010  0.0676 -0.9461  0.2674
  151SOL    HW1 1647   7.478   3.689   4.017  0.0125 -1.3407 -2.7734
  151SOL    HW2 1648   7.498   3.833   4.060 -1.8725 -1.8274  0.0100
  152SOL     OW 1649   3.646   8.354   2.025 -0.2990  0.0959  0.2798
  152SOL    HW1 1650   3.677   8.422   2.085  0.0929  0.9823 -0.9089
  152SOL    HW2 1651   3.553   8.345   2.047 -1.1553  3.1934 -1.5000
  153SOL     OW 1652   1.379   2.523   3.890  0.3555 -0.2792 -0.3678
  153SOL    HW1 1653   1.461   2.566   3.863  0.4253  0.0944  0.4183
  153SOL    HW2 1654   1.402   2.430   3.898  0.4853 -0.3046 -0.9865
  154SOL     OW 1655   5.470   6.359   6.129 -0.3785  0.6443 -0.0788
  154SOL    HW1 1656   5.381   6.358   6.095 -0.6828 -0.7660  0.6691
  154SOL    HW2 1657   5.470   6.427   6.196 -0.8235  0.8228 -0.2613
  155SOL     OW 1658   1.473   2.185   8.184 -0.3117  0.0421  0.2679
  155SOL    HW1 1659   1.377   2.177   8.192 -0.2210 -0.1895  1.3121
  155SOL    HW2 1660   1.504   2.183   8.274  0.6572  0.5564 -0.0481
  156SOL     OW 1661   6.645   4.015   0.666  0.0829 -0.9282  0.0330
  156SOL    HW1 1662   6.728   4.014   0.714 -0.3886  0.2136  0.9075
  156SOL    HW2 1663   6.655   3.946   0.600  1.3683 -1.4316  0.7190
  157SOL     OW 1664   7.545   2.985   2.463 -0.1629  0.1128 -0.0309
  157SOL    HW1 1665   7.486   2.942   2.525  0.3235 -0.4695  0.0375
  157SOL    HW2 1666   7.633   2.969   2.498  0.0343  1.1599 -0.0114
  158SOL     OW 1667   1.230   7.386   1.037 -0.8956 -0.2006 -0.1249
  158SOL    HW1 1668   1.257   7.447   0.968  2.6282 -1.2081  0.1338
  158SOL    HW2 1669   1.275   7.417   1.115  0.5416 -2.6577  0.1426
  159SOL     OW 1670   0.220   3.494   5.402  0.0984 -0.1408  0.0932
  159SOL    HW1 1671   0.140   3.468   5.449 -0.1090  1.3898  0.6558
  159SOL    HW2 1672   0.203   3.469   5.311 -0.8122 -0.2915  0.2887
  160SOL     OW 1673   5.807   0.005   4.543  0.2670 -0.9939 -0.0550
  160SOL    HW1 1674   5.876   0.045   4.489 -1.4373 -0.7590 -2.2279
  160SOL    HW2 1675   5.748   0.077   4.564 -0.0067 -1.4186  0.6641
  161SOL     OW 1676   7.071   5.925   0.544  0.3518 -0.0034  0.5839
  161SOL    HW1 1677   7.160   5.897   0.564  1.0486  0.1380 -2.0403
  161SOL    HW2 1678   7.046   5.980   0.619  2.3002 -0.3342  1.5373
  162SOL     OW 1679   8.513   4.234   2.399 -0.1830  0.0814 -0.3641
  162SOL    HW1 1680   8.455   4.239   2.322 -1.3022  1.7461  0.5301
  162SOL    HW2 1681   8.519   4.324   2.430 -0.1957 -0.6132  1.8024
  163SOL     OW 1682   3.824   1.403   7.567 -0.2940  0.3686 -0.3916
  163SOL    HW1 1683   3.849   1.413   7.659 -1.9049  0.0244  0.1128
  163SOL    HW2 1684   3.729   1.411   7.566 -0.2215  1.6861 -2.2289
  164SOL     OW 1685   7.451   7.516   3.635 -0.1770 -0.0502  0.2517
  164SOL    HW1 1686   7.430   7.458   3.709  0.5026  0.8434  1.1709
  164SOL    HW2 1687   7.398   7.594   3.649  1.5835  1.0634  1.0715
  165SOL     OW 1688   2.116   1.631   3.780  0.3280  0.1091  0.2853
  165SOL    HW1 1689   2.137   1.559   3.840  0.3403  0.6965  0.9993
  165SOL    HW2 1690   2.119   1.591   3.693  0.5184 -0.7109  0.6556
  166SOL     OW 1691   2.008   2.936   0.682 -0.1844 -0.7111  0.2528
  166SOL    HW1 1692   2.055   2.992   0.744 -1.3906 -0.6516  1.1485
  166SOL    HW2 1693   2.008   2.985   0.600  2.1922 -1.1663 -0.1024
  167SOL     OW 1694   0.450   5.417   3.489  0.0929  0.0188  0.0996
  167SOL    HW1 1695   0.538   5.385   3.507 -0.3377 -1.5492 -0.3445
  167SOL    HW2 1696   0.400   5.394   3.567  0.0015  0.6217  0.2228
  168SOL     OW 1697   1.832   3.726   4.013 -1.0841  0.0780 -0.1950
  168SOL    HW1 1698   1.815   3.798   3.952  2.0652  1.1834  0.0846
  168SOL    HW2 1699   1.805   3.760   4.098  1.2643  1.4276  0.0963
  169SOL     OW 1700   8.433   7.507   4.834 -0.0681 -0.1620  0.2125
  169SOL    HW1 1701   8.517   7.462   4.842 -0.1248 -0.6019 -1.3478
  169SOL    HW2 1702   8.457   7.599   4.819  0.1537 -0.3236 -0.4525
  170SOL     OW 1703   5.225   1.632   3.059  0.0653  0.0146  0.2298
  170SOL    HW1 1704   5.210   1.679   3.141  1.1195 -0.2475  0.5935
  170SOL    HW2 1705   5.319   1.641   3.044  0.0959 -1.0331 -0.2772
  171SOL     OW 1706   2.641   5.318   6.715 -0.4583  0.0755 -0.1625
  171SOL    HW1 1707   2.717   5.309   6.657 -0.7203 -0.5547 -0.4217
  171SOL    HW2 1708   2.599   5.399   6.688  0.4906  0.8033  0.4354
  172SOL     OW 1709   0.518   3.997   3.241  0.0915 -0.2761 -0.0181
  172SOL    HW1 1710   0.473   4.007   3.157  1.0809 -0.6921 -0.6122
  172SOL    HW2 1711   0.448   3.999   3.306 -0.6034  1.1384 -0.7652
  173SOL     OW 1712   7.048   2.676   1.700  0.0618  0.7870 -0.3657
  173SOL    HW1 1713   7.038   2.770   1.687 -3.4053  0.6380  0.1442
  173SOL    HW2 1714   7.019   2.662   1.790  0.3492 -0.7802 -0.4978
  174SOL     OW 1715   3.855   1.661   0.660 -0.3199  0.3538 -0.0562
  174SOL    HW1 1716   3.861   1.700   0.747  0.6525  0.8226 -0.3180
  174SOL    HW2 1717   3.802   1.723   0.610  0.6650  1.0114 -0.2911
  175SOL     OW 1718   3.703   7.122   3.664  0.5873 -1.2844  0.3724
  175SOL    HW1 1719   3.787   7.141   3.624 -0.3004 -0.4177 -1.1740
  175SOL    HW2 1720   3.702   7.027   3.675  2.1772 -1.2067  1.4327
  176SOL     OW 1721   4.096   6.875   5.467 -0.0233 -0.0628 -0.3927
  176SOL    HW1 1722   4.021   6.908   5.418  0.2083  1.5173  0.2628
  176SOL    HW2 1723   4.062   6.799   5.514 -1.2884  0.7394  0.0487
  177SOL     OW 1724   5.883   7.962   6.012 -0.0631  0.4164  0.7274
  177SOL    HW1 1725   5.849   8.049   5.994 -0.7796  0.3528  1.7245
  177SOL    HW2 1726   5.851   7.909   5.939 -0.2220  0.8397  0.4860
  178SOL     OW 1727   1.286   0.680   5.847  0.5291  0.7091 -0.5998
  178SOL    HW1 1728   1.278   0.600   5.898 -0.5237  0.8315 -0.5560
  178SOL    HW2 1729   1.285   0.750   5.912  3.3392  0.7372 -0.4612
  179SOL     OW 1730   7.745   2.305   6.694 -0.2746  0.2803  0.1330
  179SOL    HW1 1731   7.667   2.360   6.684  0.0089  0.5380 -0.7203
  179SOL    HW2 1732   7.815   2.367   6.715 -0.4553 -0.0400  1.8539
  180SOL     OW 1733   1.227   4.040   5.708 -0.4110  0.4349 -0.0545
  180SOL    HW1 1734   1.175   4.109   5.749  1.5617  1.5176  0.8070
  180SOL    HW2 1735   1.312   4.082   5.692  0.6568 -1.6412 -0.0963
  181SOL     OW 1736   6.584   5.957   6.860 -0.3095 -0.5424  0.4335
  181SOL    HW1 1737   6.492   5.983   6.855 -0.0557  0.5697  1.1916
  181SOL    HW2 1738   6.599   5.940   6.953  0.5955  0.6415  0.5239
  182SOL     OW 1739   5.477   1.393   0.275 -0.2520 -0.0687 -0.4000
  182SOL    HW1 1740   5.464   1.315   0.221 -2.0760 -0.3819  0.4190
  182SOL    HW2 1741   5.570   1.389   0.301 -0.1094 -1.5047 -1.0579
  183SOL     OW 1742   8.316   2.116   5.137 -0.2791  0.4303  0.2548
  183SOL    HW1 1743   8.319   2.123   5.233 -1.3049  0.2492  0.3119
  183SOL    HW2 1744   8.379   2.181   5.106  0.1765  0.3850  1.0547
  184SOL     OW 1745   1.869   5.875   3.173  0.0292  0.0896 -0.3051
  184SOL    HW1 1746   1.902   5.962   3.196  1.1913 -0.8861  2.0503
  184SOL    HW2 1747   1.781   5.891   3.138  1.1308  2.3747 -2.3213
  185SOL     OW 1748   5.969   5.460   2.656 -0.0726  0.2212  0.2576
  185SOL    HW1 1749   5.887   5.460   2.607  0.7078  0.8574 -1.0939
  185SOL    HW2 1750   6.008   5.545   2.636  0.0961  0.6796  2.3196
  186SOL     OW 1751   6.245   3.802   8.014 -0.0149  0.3609  0.2862
  186SOL    HW1 1752   6.316   3.850   7.971 -1.3634  0.9355 -1.4058
  186SOL    HW2 1753   6.167   3.853   7.994 -0.9738 -0.4799  1.7636
  187SOL     OW 1754   8.098   0.919   5.471  0.0636 -0.3083  0.0309
  187SOL    HW1 1755   8.090   0.832   5.432  0.6797 -0.4418  0.1902
  187SOL    HW2 1756   8.178   0.914   5.523  2.6529  1.5858 -3.3093
  188SOL     OW 1757   3.945   4.936   2.310 -0.0523 -0.0682 -0.1545
  188SOL    HW1 1758   3.916   4.852   2.346 -1.3176 -1.2024 -3.4092
  188SOL    HW2 1759   4.039   4.924   2.297 -0.4011 -1.6344 -1.7987
  189SOL     OW 1760   5.550   4.519   2.392  0.1616  0.0914  0.2963
  189SOL    HW1 1761   5.621   4.504   2.455  0.0854  1.1644  0.6680
  189SOL    HW2 1762   5.497   4.589   2.432 -1.7617 -1.4273  0.5729
  190SOL     OW 1763   1.051   5.073   6.932 -0.3176  0.0723 -0.2420
  190SOL    HW1 1764   1.041   5.052   7.025 -1.1900 -0.5200 -0.4513
  190SOL    HW2 1765   0.984   5.139   6.915  0.7131  1.1627 -0.1689
  191SOL     OW 1766   8.309   1.821   3.961  0.1215  0.3394 -0.2524
  191SOL    HW1 1767   8.245   1.869   4.013 -0.6784  0.8129 -1.6220
  191SOL    HW2 1768   8.301   1.730   3.990 -1.4415  0.3293 -0.6406
  192SOL     OW 1769   7.930   0.993   7.825  0.4207 -0.5278 -0.8332
  192SOL    HW1 1770   7.987   1.033   7.891 -1.6668 -0.0150  0.7674
  192SOL    HW2 1771   7.959   0.902   7.820  0.7704 -0.5214  0.6566
  193SOL     OW 1772   7.135   3.631   5.548 -0.5937 -0.6154 -0.1782
  193SOL    HW1 1773   7.179   3.546   5.548 -1.7887 -1.2466  0.5945
  193SOL    HW2 1774   7.045   3.613   5.574 -0.5773  1.0279  1.1946
  194SOL     OW 1775   0.131   7.669   3.296  0.6550 -0.4627 -0.5713
  194SOL    HW1 1776   0.159   7.579   3.316  1.8622 -0.1943 -0.9561
  194SOL    HW2 1777   0.209   7.722   3.312 -0.1871  0.6074  0.1541
  195SOL     OW 1778   7.029   1.562   7.049  0.9752 -0.2792  0.3165
  195SOL    HW1 1779   6.970   1.491   7.074  0.8115 -0.7579 -1.3040
  195SOL    HW2 1780   6.989   1.641   7.085 -0.6084 -0.6076 -0.6223
  196SOL     OW 1781   4.873   1.758   0.115  0.5974 -0.0706 -0.2145
  196SOL    HW1 1782   4.923   1.689   0.071  1.6084 -0.0528  0.8547
  196SOL    HW2 1783   4.836   1.715   0.192 -0.7550  0.0163 -0.7869
  197SOL     OW 1784   2.146   7.833   1.763  0.0836 -0.5222  0.9234
  197SOL    HW1 1785   2.149   7.882   1.845 -0.2288 -0.9603  1.1994
  197SOL    HW2 1786   2.191   7.750   1.782  0.2123 -0.5317  0.5871
  198SOL     OW 1787   5.953   5.259   8.059  0.1261  0.3465  0.1363
  198SOL    HW1 1788   5.864   5.239   8.030 -0.1920  0.6343  0.8708
  198SOL    HW2 1789   5.954   5.354   8.070  1.7364  0.9528 -3.7020
  199SOL     OW 1790   2.807   6.209   4.471  0.2125 -0.3998 -0.2646
  199SOL    HW1 1791   2.749   6.277   4.505  1.5274  1.2923 -1.2702
  199SOL    HW2 1792   2.879   6.205   4.534  0.1313 -0.9029 -0.1969
  200SOL     OW 1793   1.601   6.663   6.122 -0.7032  0.1464 -0.1688
  200SOL    HW1 1794   1.554   6.737   6.163  0.1162  1.5860 -1.7100
  200SOL    HW2 1795   1.552   6.646   6.042 -0.9777 -1.1249  0.2581
  201SOL     OW 1796   2.647   5.585   1.778 -0.2939 -0.4340  0.1664
  201SOL    HW1 1797   2.702   5.527   1.831 -2.9408 -3.6453 -0.2943
  201SOL    HW2 1798   2.585   5.624   1.840  0.4576  0.7385  0.2251
  202SOL     OW 1799   4.205   1.217   7.677  0.1393 -0.1854 -0.1638
  202SOL    HW1 1800   4.129   1.198   7.623  0.5889 -2.0053 -0.2272
  202SOL    HW2 1801   4.170   1.229   7.765 -0.4076  1.1216 -0.5222
  203SOL     OW 1802   3.279   7.520   6.951 -0.5455  0.5830 -0.1243
  203SOL    HW1 1803   3.289   7.612   6.929 -1.0775  0.7912  0.4834
  203SOL    HW2 1804   3.369   7.485   6.951 -0.3034  1.1986  0.0965
  204SOL     OW 1805   8.208   1.863   6.854  0.2947  0.4556  0.3016
  204SOL    HW1 1806   8.282   1.922   6.845  0.6221  0.1517  0.9447
  204SOL    HW2 1807   8.246   1.779   6.879 -0.2217  0.1601  0.1203
  205SOL     OW 1808   4.855   1.890   6.198  0.1398  0.0744 -0.5983
  205SOL    HW1 1809   4.811   1.970   6.169 -1.5394 -0.4638  0.3585
  205SOL    HW2 1810   4.822   1.875   6.286  2.3998 -0.2822  0.2684
  206SOL     OW 1811   5.332   6.034   1.263 -0.3896 -0.1527 -0.0435
  206SOL    HW1 1812   5.337   6.074   1.350  3.3272  4.8318 -2.0165
  206SOL    HW2 1813   5.274   6.092   1.214  0.8281 -0.3262 -1.7867
  207SOL     OW 1814   7.763   2.358   0.879  0.2110 -0.3719  0.2388
  207SOL    HW1 1815   7.812   2.429   0.922  0.8917 -0.8690  0.3022
  207SOL    HW2 1816   7.691   2.340   0.939  0.0646  0.2290  0.2498
  208SOL     OW 1817   2.540   7.308   6.646  0.0092 -0.2947  0.2212
  208SOL    HW1 1818   2.456   7.296   6.690  0.4839  1.1162  1.5957
  208SOL    HW2 1819   2.534   7.395   6.606  1.0502  0.1267  0.9356
  209SOL     OW 1820   0.122   8.139   5.639 -0.0327  0.3872 -0.3245
  209SOL    HW1 1821   0.108   8.047   5.661  1.3900  0.0171 -0.8292
  209SOL    HW2 1822   0.131   8.140   5.544 -2.4238  1.4356 -0.6153
  210SOL     OW 1823   4.129   3.193   2.327 -0.7491  0.2911  0.5667
  210SOL    HW1 1824   4.206   3.216   2.276 -0.1589 -0.5373  1.0717
  210SOL    HW2 1825   4.108   3.104   2.301 -2.3295  0.9390 -0.5152
  211SOL     OW 1826   4.418   8.116   0.516 -0.4265 -0.4304 -0.1853
  211SOL    HW1 1827   4.433   8.192   0.461  0.8941  0.5633  1.4511
  211SOL    HW2 1828   4.323   8.112   0.528 -0.6246  0.0415 -1.4979
  212SOL     OW 1829   2.372   2.489   1.131 -0.8105  0.1431  0.3034
  212SOL    HW1 1830   2.292   2.451   1.167  0.3588 -2.7671  0.1414
  212SOL    HW2 1831   2.418   2.415   1.092  0.9894  2.0811 -1.5090
  213SOL     OW 1832   7.253   1.425   1.671  0.0397  0.1717  0.9886
  213SOL    HW1 1833   7.190   1.396   1.737  0.1997  1.5358  1.7717
  213SOL    HW2 1834   7.250   1.357   1.604 -1.3876 -0.3833  1.5773
  214SOL     OW 1835   0.011   4.971   0.052 -0.2028 -0.2787 -0.4527
  214SOL    HW1 1836  -0.064   4.996  -0.001 -1.1488  2.4020  1.8705
  214SOL    HW2 1837  -0.027   4.934   0.132  0.9305  0.4561  0.4688
  215SOL     OW 1838   2.828   0.044   0.936  0.2775 -0.4392 -0.0722
  215SOL    HW1 1839   2.841  -0.007   1.016  0.5178  1.0048  0.8584
  215SOL    HW2 1840   2.842   0.135   0.964 -1.4125  0.2705 -1.3474
  216SOL     OW 1841   4.863   0.496   6.086 -0.1560  0.8739 -0.1189
  216SOL    HW1 1842   4.797   0.428   6.073  1.2984 -1.2878  2.7111
  216SOL    HW2 1843   4.906   0.504   6.001 -1.1606 -0.8768 -0.8396
  217SOL     OW 1844   0.647   4.638   8.136  0.8848  0.0727 -0.1586
  217SOL    HW1 1845   0.633   4.642   8.230 -1.6532  3.1666 -0.5047
  217SOL    HW2 1846   0.570   4.591   8.102 -0.0623  2.0415 -0.8710
  218SOL     OW 1847   8.029   4.085   7.904 -0.1488 -0.3860  0.4517
  218SOL    HW1 1848   7.959   4.071   7.840 -0.6528 -0.0821  0.9323
  218SOL    HW2 1849   8.053   4.177   7.895 -0.0192 -0.4144  0.4997
  219SOL     OW 1850   6.439   4.709   7.759 -0.3233  0.2476 -0.0291
  219SOL    HW1 1851   6.469   4.649   7.691  0.3696 -1.7958  1.9391
  219SOL    HW2 1852   6.349   4.684   7.776  0.4173 -1.4613  1.8718
  220SOL     OW 1853   2.630   0.783   5.140  0.3026 -0.2240 -0.4423
  220SOL    HW1 1854   2.716   0.743   5.154  0.1232  0.1918  2.5602
  220SOL    HW2 1855   2.572   0.737   5.200 -1.1754  0.7469 -1.0589
  221SOL     OW 1856   8.169   8.001   0.966 -0.6724  0.1087 -0.0729
  221SOL    HW1 1857   8.081   7.976   0.938 -0.2211 -0.4862 -1.0165
  221SOL    HW2 1858   8.176   8.094   0.944 -0.4944 -0.2373 -1.5412
  222SOL     OW 1859   3.219   3.366   7.937 -0.0539  0.2464  0.7033
  222SOL    HW1 1860   3.247   3.275   7.924  0.0261  0.2439  0.8944
  222SOL    HW2 1861   3.300   3.417   7.929 -0.1992  0.3649 -0.0709
  223SOL     OW 1862   3.256   3.750   6.882  0.6267 -0.4526 -0.4513
  223SOL    HW1 1863   3.167   3.785   6.884  0.4436 -0.9113  1.7500
  223SOL    HW2 1864   3.309   3.822   6.848 -0.3853  0.3048 -0.4759
  224SOL     OW 1865   0.550   5.260   5.108 -0.2124 -0.1194 -0.0812
  224SOL    HW1 1866   0.573   5.248   5.200  1.2818  1.5292 -0.1816
  224SOL    HW2 1867   0.634   5.273   5.064 -0.6871 -3.0251 -2.0956
  225SOL     OW 1868   7.605   6.337   6.984 -0.0316 -0.6828  0.2599
  225SOL    HW1 1869   7.546   6.269   7.016  2.1119 -1.5241  2.7378
  225SOL    HW2 1870   7.677   6.288   6.944 -0.6249  0.3099 -2.1965
  226SOL     OW 1871   3.376   6.547   6.525 -0.2684  0.3073  0.0850
  226SOL    HW1 1872   3.436   6.477   6.551  1.2490  1.3247 -0.5041
  226SOL    HW2 1873   3.331   6.573   6.605 -0.8454 -1.3024  0.3115
  227SOL     OW 1874   0.313   3.934   3.414  1.1277 -0.7360 -0.5656
  227SOL    HW1 1875   0.338   3.917   3.505 -0.2480  0.3773  0.0655
  227SOL    HW2 1876   0.235   3.880   3.400 -1.3915  2.3365  0.4593
  228SOL     OW 1877   3.212   3.051   0.570 -0.6373 -0.5232 -0.4573
  228SOL    HW1 1878   3.167   2.975   0.535 -1.9407  1.0146 -2.3261
  228SOL    HW2 1879   3.238   3.102   0.493  0.7803  0.6217  0.6984
  229SOL     OW 1880   3.757   1.075   7.938  0.1445  0.3166 -0.3143
  229SOL    HW1 1881   3.798   1.019   7.872 -0.1216 -0.0935 -0.1400
  229SOL    HW2 1882   3.793   1.043   8.021  1.1307  1.3853 -0.3104
  230SOL     OW 1883   7.574   0.423   4.784  0.0307  0.5312  0.1236
  230SOL    HW1 1884   7.484   0.398   4.763  0.7675 -1.7183 -0.6487
  230SOL    HW2 1885   7.607   0.463   4.704  0.2531 -0.3042 -0.2108
  231SOL     OW 1886   7.881   5.042   0.418  0.6981 -0.0506  0.4404
  231SOL    HW1 1887   7.927   4.988   0.354  0.7232 -1.8560  1.8752
  231SOL    HW2 1888   7.947   5.062   0.484  0.3317  0.5601  0.6234
  232SOL     OW 1889   8.406   4.407   1.240  0.0221 -0.4455  0.0350
  232SOL    HW1 1890   8.412   4.353   1.319 -0.1465 -0.0897  0.2912
  232SOL    HW2 1891   8.313   4.411   1.220 -0.3924  2.5038  1.9593
  233SOL     OW 1892   1.172   1.062   1.689  0.2328 -0.6354  0.2547
  233SOL    HW1 1893   1.123   1.074   1.607 -0.9204 -0.3478  0.9672
  233SOL    HW2 1894   1.254   1.107   1.674 -0.2123 -0.0588 -0.5374
  234SOL     OW 1895   0.561   2.189   1.638  0.0497  0.3568  0.7217
  234SOL    HW1 1896   0.505   2.135   1.582 -0.6169  0.1800  1.5344
  234SOL    HW2 1897   0.515   2.273   1.643  0.2505  0.4616  0.7795
  235SOL     OW 1898   3.122   2.238   4.744  0.5249 -0.1281 -0.1926
  235SOL    HW1 1899   3.042   2.199   4.779 -0.2920  1.3911 -0.2745
  235SOL    HW2 1900   3.193   2.195   4.792 -0.4359 -0.1767  1.2329
  236SOL     OW 1901   6.879   8.199   3.503  0.2387 -0.3404  0.1637
  236SOL    HW1 1902   6.887   8.270   3.440  0.1352 -0.1284  0.3839
  236SOL    HW2 1903   6.813   8.140   3.466 -0.0049 -0.0874  0.1946
  237SOL     OW 1904   0.024   2.862   2.304  0.0383  0.3057  0.3080
  237SOL    HW1 1905  -0.012   2.781   2.268  0.3645  0.8080 -1.2387
  237SOL    HW2 1906   0.119   2.848   2.306  0.2270  1.1302 -1.3277
  238SOL     OW 1907   1.916   8.183   2.845  0.0847  0.4995  0.3128
  238SOL    HW1 1908   1.997   8.133   2.858  1.8494  2.5784 -1.7496
  238SOL    HW2 1909   1.856   8.120   2.805  1.3733 -0.6248  0.0322
  239SOL     OW 1910   0.297   7.480   5.710  0.4134 -0.0503  0.3652
  239SOL    HW1 1911   0.247   7.465   5.791  0.8907  0.5111  0.7708
  239SOL    HW2 1912   0.345   7.561   5.726  0.4334  0.1250 -0.5293
  240SOL     OW 1913   6.009   7.742   6.638 -0.2420 -0.2107  0.4013
  240SOL    HW1 1914   6.042   7.794   6.566  0.0742 -0.7988  0.1208
  240SOL    HW2 1915   6.020   7.651   6.610 -0.9848 -0.4322  0.7945
  241SOL     OW 1916   2.356   4.107   2.855 -0.3385 -0.6283 -0.3519
  241SOL    HW1 1917   2.356   4.046   2.929 -0.6282 -0.2581 -0.0388
  241SOL    HW2 1918   2.412   4.179   2.885  1.0642 -1.3110 -1.2143
  242SOL     OW 1919   1.040   2.833   3.251  0.2705 -0.0959 -0.1313
  242SOL    HW1 1920   1.123   2.790   3.272  0.7181  1.0619  0.5639
  242SOL    HW2 1921   1.059   2.927   3.258 -1.2687  0.1846  0.7955
  243SOL     OW 1922   6.787   2.802   3.465 -0.3884  0.0083  0.4706
  243SOL    HW1 1923   6.729   2.800   3.541 -1.3034  2.5312 -0.0621
  243SOL    HW2 1924   6.871   2.831   3.501 -1.3202  3.1988  0.3821
  244SOL     OW 1925   5.485   8.500   3.113 -0.0908 -0.7704  0.1290
  244SOL    HW1 1926   5.528   8.441   3.050 -2.6169 -1.2156 -1.3126
  244SOL    HW2 1927   5.522   8.586   3.094 -1.5953 -0.6565 -2.9255
  245SOL     OW 1928   7.120   5.201   5.060  0.5762  0.4378  0.1292
  245SOL    HW1 1929   7.181   5.134   5.029 -0.8375 -0.9074  0.1088
  245SOL    HW2 1930   7.066   5.221   4.984  0.1054  0.5930  0.5004
  246SOL     OW 1931   4.387   1.026   3.010 -0.7889  0.2571  0.0635
  246SOL    HW1 1932   4.452   1.095   3.023 -0.2408 -0.2888  0.3144
  246SOL    HW2 1933   4.420   0.953   3.063 -0.9945 -0.4223 -0.7282
  247SOL     OW 1934   4.748   8.010   8.497  0.2690 -0.8825  0.0983
  247SOL    HW1 1935   4.663   7.987   8.460 -0.6001  2.2832 -0.1279
  247SOL    HW2 1936   4.808   7.944   8.462 -1.8846 -2.6559 -0.4713
  248SOL     OW 1937   8.522   0.748   7.496 -0.0865  0.1086 -0.3922
  248SOL    HW1 1938   8.439   0.723   7.454 -0.5072  0.5127  0.1896
  248SOL    HW2 1939   8.577   0.670   7.488 -1.1826 -0.8424  0.9104
  249SOL     OW 1940   0.077   4.353   0.401 -0.5462 -0.0964 -0.0940
  249SOL    HW1 1941   0.108   4.303   0.326  0.7735  0.0427  0.3200
  249SOL    HW2 1942   0.079   4.290   0.474  0.2290  0.2903  0.2360
  250SOL     OW 1943   8.116   7.382   6.838 -0.3675  0.1512 -0.5798
  250SOL    HW1 1944   8.130   7.461   6.889 -1.5539  0.7813 -1.1868
  250SOL    HW2 1945   8.033   7.397   6.792 -0.3527 -1.2225 -1.1168
  251SOL     OW 1946   2.115   7.353   3.921  0.0758 -0.1076 -0.2690
  251SOL    HW1 1947   2.209   7.354   3.903  0.4249 -0.0209  1.3847
  251SOL    HW2 1948   2.108   7.385   4.011 -1.6304  0.8258 -0.7018
  252SOL     OW 1949   1.914   1.606   7.526 -0.5677 -0.2417 -0.1984
  252SOL    HW1 1950   1.856   1.628   7.599  0.2986  1.3831  0.0420
  252SOL    HW2 1951   1.988   1.562   7.567 -0.9646 -1.0723 -0.3474
  253SOL     OW 1952   0.919   7.396   6.961  0.2082  0.4112 -0.3653
  253SOL    HW1 1953   0.966   7.333   7.017 -0.1781  0.3022 -0.1633
  253SOL    HW2 1954   0.980   7.414   6.890  0.0912 -0.6574 -0.7528
  254SOL     OW 1955   3.945   0.513   3.457 -0.2644 -0.0095 -0.5346
  254SOL    HW1 1956   3.874   0.496   3.394  0.2022 -0.1047 -1.0384
  254SOL    HW2 1957   4.017   0.545   3.403 -0.5519  1.9630  0.1781
  255SOL     OW 1958   7.710   5.545   5.517 -0.3698  0.0867  0.0396
  255SOL    HW1 1959   7.615   5.545   5.500 -0.3628 -1.9791 -0.2694
  255SOL    HW2 1960   7.725   5.463   5.565  1.0734  1.0536  1.3264
  256SOL     OW 1961   0.972   2.960   0.325 -0.8220  0.5895 -0.2525
  256SOL    HW1 1962   0.999   2.986   0.413 -3.3701  1.9358  0.2329
  256SOL    HW2 1963   1.034   3.004   0.266  0.9827 -0.4143  0.8064
  257SOL     OW 1964   4.455   1.035   5.007 -0.4758  0.4623  0.9193
  257SOL    HW1 1965   4.469   1.128   5.028  1.6157  0.0538  1.5980
  257SOL    HW2 1966   4.519   1.017   4.938  0.4356 -0.8820  2.0735
  258SOL     OW 1967   8.521   3.942   7.274 -0.1850  0.2580 -0.2915
  258SOL    HW1 1968   8.507   3.903   7.188 -0.2257 -0.5757  0.0913
  258SOL    HW2 1969   8.457   4.012   7.280 -0.4316  0.0720 -0.7896
  259SOL     OW 1970   3.711   0.752   6.436 -0.6555 -0.4967 -0.2532
  259SOL    HW1 1971   3.636   0.719   6.386 -0.8791 -1.8581  0.9201
  259SOL    HW2 1972   3.782   0.755   6.372 -1.7600  1.1712 -1.4781
  260SOL     OW 1973   2.404   7.455   2.455  0.0308  0.1903  0.0478
  260SOL    HW1 1974   2.464   7.434   2.526  0.4916  2.5297  0.4229
  260SOL    HW2 1975   2.346   7.379   2.450  0.7388 -0.5601  2.1094
  261SOL     OW 1976   5.249   0.478   2.650  0.2735 -0.0862  0.3544
  261SOL    HW1 1977   5.178   0.540   2.633 -1.0894 -1.2656  1.5186
  261SOL    HW2 1978   5.318   0.504   2.589 -1.6035  0.3213 -1.7226
  262SOL     OW 1979   1.293   6.814   5.916 -0.0548  0.0798 -0.3846
  262SOL    HW1 1980   1.249   6.872   5.979 -0.9406 -0.0885 -0.8416
  262SOL    HW2 1981   1.303   6.731   5.962  1.3036  0.5876  0.3087
  263SOL     OW 1982   3.493   6.149   6.280  0.0470  0.1991 -0.1650
  263SOL    HW1 1983   3.423   6.186   6.226 -1.3979 -0.3812  1.2275
  263SOL    HW2 1984   3.472   6.178   6.369  2.1907  0.8764  0.1779
  264SOL     OW 1985   1.478   3.795   8.496 -0.3293 -0.5159  0.3757
  264SOL    HW1 1986   1.386   3.772   8.511  0.2424 -2.6780  0.9528
  264SOL    HW2 1987   1.508   3.828   8.581 -0.7196  0.8459  0.0035
  265SOL     OW 1988   4.707   2.281   8.135  0.2966  0.3494 -0.4186
  265SOL    HW1 1989   4.679   2.190   8.130  0.7710 -0.0422  2.4013
  265SOL    HW2 1990   4.645   2.321   8.197  1.7733  1.1773  0.5852
  266SOL     OW 1991   5.639   6.372   4.799  0.0023 -0.9894 -0.4894
  266SOL    HW1 1992   5.649   6.453   4.749 -0.4552 -1.5580 -1.5480
  266SOL    HW2 1993   5.588   6.315   4.742 -0.2619 -1.7897  0.5173
  267SOL     OW 1994   6.163   2.691   2.946  0.3612  0.7378  0.0962
  267SOL    HW1 1995   6.125   2.778   2.933 -1.4269 -0.0502 -0.1736
  267SOL    HW2 1996   6.231   2.705   3.012  0.6571  2.4696 -0.5206
  268SOL     OW 1997   4.009   3.973   5.661 -0.0357  0.4848  0.0381
  268SOL    HW1 1998   4.099   4.005   5.661 -0.5210  1.9402 -0.6649
  268SOL    HW2 1999   4.007   3.906   5.592  0.1775  1.4769 -0.9436
  269SOL     OW 2000   2.790   2.600   2.729 -0.1493 -0.1289  0.6893
  269SOL    HW1 2001   2.834   2.632   2.808  1.0805  0.8144 -0.3273
  269SOL    HW2 2002   2.852   2.619   2.658 -1.3677 -0.6274 -0.5505
  270SOL     OW 2003   1.825   4.374   7.061 -0.5463 -0.1394 -0.2863
  270SOL    HW1 2004   1.822   4.299   7.001 -0.2978 -0.0562 -0.4068
  270SOL    HW2 2005   1.863   4.445   7.008  1.8779 -0.6718  0.5924
  271SOL     OW 2006   1.764   0.343   0.822  0.6544 -0.0536  0.0144
  271SOL    HW1 2007   1.682   0.319   0.866 -0.2260  0.2589 -1.3995
  271SOL    HW2 2008   1.832   0.318   0.885 -0.5110 -0.1798  1.2946
  272SOL     OW 2009   4.577   1.456   1.244 -0.4962  0.0442  0.4106
  272SOL    HW1 2010   4.648   1.420   1.191 -0.3550  1.1699 -0.1867
  272SOL    HW2 2011   4.552   1.384   1.303  0.5278 -0.6496  0.0191
  273SOL     OW 2012   1.431   8.067   2.417  0.2240  0.1536 -0.2915
  273SOL    HW1 2013   1.506   8.039   2.365 -0.3684  1.3808 -1.8677
  273SOL    HW2 2014   1.448   8.159   2.437 -0.5062  0.2370 -0.0251
  274SOL     OW 2015   6.486   5.937   2.162  0.3464 -0.1902  0.9095
  274SOL    HW1 2016   6.457   5.979   2.081  0.7006  0.0381  0.8969
  274SOL    HW2 2017   6.405   5.926   2.213 -0.0065 -1.1576  0.1616
  275SOL     OW 2018   3.243   5.487   3.112  0.2828  0.5726  0.5043
  275SOL    HW1 2019   3.148   5.481   3.124 -0.0674  0.9160 -1.6232
  275SOL    HW2 2020   3.262   5.580   3.116  0.3655  0.5815 -0.0498
  276SOL     OW 2021   6.089   5.487   6.305  0.1153  0.0421  0.2126
  276SOL    HW1 2022   6.169   5.444   6.333 -0.7651 -1.8104  0.0402
  276SOL    HW2 2023   6.108   5.522   6.218  0.9445  0.2751  0.4863
  277SOL     OW 2024   4.213   6.886   7.560 -0.1123 -0.4568 -0.0542
  277SOL    HW1 2025   4.155   6.935   7.502 -0.5078  0.8112  1.3575
  277SOL    HW2 2026   4.156   6.855   7.630  0.5398 -1.0893  0.2075
  278SOL     OW 2027   6.112   1.864   6.196  0.1345 -0.4155 -0.0998
  278SOL    HW1 2028   6.021   1.887   6.213  0.2045 -0.2809  0.1024
  278SOL    HW2 2029   6.112   1.770   6.183  0.4622 -1.0606  3.4809
  279SOL     OW 2030   0.630   3.691   0.423 -0.0713 -0.6113  0.5197
  279SOL    HW1 2031   0.668   3.778   0.412  0.0376 -0.8481 -1.2269
  279SOL    HW2 2032   0.536   3.704   0.412  0.0230 -0.8237 -0.6886
  280SOL     OW 2033   2.589   3.640   4.805  0.3639  0.2963  0.0879
  280SOL    HW1 2034   2.602   3.734   4.791 -2.3720  1.3111  3.0220
  280SOL    HW2 2035   2.648   3.618   4.877  0.6334 -0.1427 -0.2599
  281SOL     OW 2036   3.315   7.786   5.753  0.0286 -0.0898  0.5217
  281SOL    HW1 2037   3.303   7.846   5.826 -1.9105  1.1052 -0.6783
  281SOL    HW2 2038   3.328   7.843   5.677  1.2095 -1.2747 -0.2035
  282SOL     OW 2039   3.185   3.655   2.333  0.0237 -0.8199  0.0593
  282SOL    HW1 2040   3.233   3.619   2.407  1.0477 -1.3939 -0.8512
  282SOL    HW2 2041   3.134   3.727   2.370  1.7968  0.0040  1.0300
  283SOL     OW 2042   4.361   6.135   6.847 -0.4185  0.4051  0.2707
  283SOL    HW1 2043   4.343   6.160   6.937  1.4317 -1.6890  1.3133
  283SOL    HW2 2044   4.325   6.047   6.839  0.6512  0.0186 -0.5699
  284SOL     OW 2045   4.209   2.696   5.782  0.5539  0.4988 -0.1369
  284SOL    HW1 2046   4.187   2.658   5.867  0.1480  1.8437  0.3916
  284SOL    HW2 2047   4.300   2.725   5.792  0.5898  0.4264 -0.2515
  285SOL     OW 2048   3.078   4.049   2.243  0.7108 -0.5215 -0.4923
  285SOL    HW1 2049   3.172   4.051   2.265  0.4610  0.9774  0.5979
  285SOL    HW2 2050   3.042   3.979   2.298  0.8202  0.4325  0.8301
  286SOL     OW 2051   0.615   4.639   6.497  0.3207  1.0782  0.6258
  286SOL    HW1 2052   0.557   4.564   6.511  1.4569  0.1596  0.5665
  286SOL    HW2 2053   0.556   4.713   6.489 -0.8376  0.2110  0.7855
  287SOL     OW 2054   7.143   2.320   1.874  0.2507 -0.1815  0.5523
  287SOL    HW1 2055   7.201   2.300   1.801 -0.0860 -1.2107  0.5442
  287SOL    HW2 2056   7.135   2.237   1.921 -0.3454  0.2205  1.1738
  288SOL     OW 2057   7.005   6.646   2.171 -0.0807  0.0318  0.0837
  288SOL    HW1 2058   6.972   6.713   2.111 -0.7603 -2.6493 -2.8551
  288SOL    HW2 2059   7.081   6.609   2.126 -0.1591 -1.6413  1.2232
  289SOL     OW 2060   5.821   4.370   4.256  0.5810 -0.6290  0.2586
  289SOL    HW1 2061   5.871   4.449   4.233 -1.6898  0.8712  0.1557
  289SOL    HW2 2062   5.868   4.299   4.212  3.1678  0.5040  1.0075
  290SOL     OW 2063   5.638   6.006   4.504 -0.0157  0.2606 -0.3589
  290SOL    HW1 2064   5.659   6.021   4.412  0.3040 -1.0231 -0.5138
  290SOL    HW2 2065   5.691   5.931   4.530 -0.5130  0.2503  0.7211
  291SOL     OW 2066   2.591   3.539   7.190 -0.0817 -0.1922  0.7605
  291SOL    HW1 2067   2.499   3.512   7.187  0.4986 -2.3925  0.2466
  291SOL    HW2 2068   2.618   3.542   7.098  0.2476  0.9659  0.8799
  292SOL     OW 2069   6.097   7.851   5.225 -0.2337  0.0900 -0.2259
  292SOL    HW1 2070   6.136   7.772   5.263 -1.4271 -0.0004  0.8656
  292SOL    HW2 2071   6.004   7.846   5.249 -0.9850  0.2761 -2.7508
  293SOL     OW 2072   4.763   7.515   5.040  0.1677  0.1123  0.1703
  293SOL    HW1 2073   4.743   7.427   5.009  0.7402 -0.0037  0.1169
  293SOL    HW2 2074   4.703   7.572   4.993 -1.1394 -0.3738  1.1862
  294SOL     OW 2075   2.703   5.241   3.220 -0.0974 -0.4187 -0.3818
  294SOL    HW1 2076   2.776   5.192   3.258  0.0434 -0.3249 -0.5240
  294SOL    HW2 2077   2.629   5.182   3.223  0.1858 -0.8128 -0.9896
  295SOL     OW 2078   4.394   4.317   4.613  0.7768 -0.1860 -0.2518
  295SOL    HW1 2079   4.463   4.352   4.669  0.8457  0.4917 -0.7486
  295SOL    HW2 2080   4.315   4.363   4.641  0.7188 -0.2050 -0.3836
  296SOL     OW 2081   0.064   7.318   1.815 -0.3461 -0.1025  0.0549
  296SOL    HW1 2082   0.038   7.402   1.778  0.8610 -0.9336 -3.0456
  296SOL    HW2 2083   0.153   7.305   1.782 -0.0746 -2.0833  1.4274
  297SOL     OW 2084   4.096   6.706   4.892 -0.4402  0.3121  0.6164
  297SOL    HW1 2085   4.111   6.723   4.985  0.1359  3.5120  0.0747
  297SOL    HW2 2086   4.176   6.738   4.849 -0.8884 -0.6638 -1.0198
  298SOL     OW 2087   0.509   4.624   2.416 -0.1233  0.0453  0.0754
  298SOL    HW1 2088   0.421   4.650   2.444 -0.5594  0.2643 -1.3864
  298SOL    HW2 2089   0.496   4.538   2.374  0.0557  0.7789 -1.5551
  299SOL     OW 2090   5.704   6.722   0.800  0.5506 -0.5267  0.2180
  299SOL    HW1 2091   5.693   6.727   0.895  1.1905  0.6805  0.2523
  299SOL    HW2 2092   5.623   6.684   0.768 -0.1987  0.2576  1.1383
  300SOL     OW 2093   0.621   5.551   2.450  0.2608  0.3836 -0.0096
  300SOL    HW1 2094   0.557   5.620   2.432  1.1643  1.0162 -0.9554
  300SOL    HW2 2095   0.699   5.598   2.477  0.5594 -0.3344  0.3965
  301SOL     OW 2096   5.991   5.643   0.612 -0.0651  0.0913 -0.1018
  301SOL    HW1 2097   6.027   5.729   0.591  0.0921  0.0994  0.1985
  301SOL    HW2 2098   5.981   5.600   0.527 -1.2420  0.8289 -0.3496
  302SOL     OW 2099   0.633   7.608   8.114  0.0779 -0.4308 -0.1106
  302SOL    HW1 2100   0.562   7.665   8.085  0.6235  0.8736  0.9907
  302SOL    HW2 2101   0.605   7.520   8.089 -0.3143  0.3635 -2.8546
  303SOL     OW 2102   0.510   1.031   7.856 -0.1672  0.0120 -0.4413
  303SOL    HW1 2103   0.443   1.095   7.876 -1.3082 -1.2853  0.0559
  303SOL    HW2 2104   0.463   0.948   7.849  1.2863 -0.8201 -0.8256
  304SOL     OW 2105   7.477   4.043   0.163  0.3940  0.4857  0.2752
  304SOL    HW1 2106   7.469   4.014   0.072 -0.1534 -0.2157  0.5326
  304SOL    HW2 2107   7.570   4.035   0.183  0.5381  0.7647 -0.2605
  305SOL     OW 2108   3.000   1.532   3.707 -0.0699  0.3749  0.2960
  305SOL    HW1 2109   3.018   1.576   3.624  0.7202  1.8416  1.1965
  305SOL    HW2 2110   3.061   1.573   3.769 -0.5903 -0.7368  1.5838
  306SOL     OW 2111   4.861   5.555   6.401 -0.6033 -0.2191  0.6923
  306SOL    HW1 2112   4.913   5.633   6.423 -0.4668 -0.7194  2.2439
  306SOL    HW2 2113   4.776   5.571   6.442 -1.1410 -0.1657 -0.4030
  307SOL     OW 2114   3.020   0.549   0.318  0.6625  0.1987 -0.3543
  307SOL    HW1 2115   2.973   0.466   0.308  1.5369 -0.2471 -0.8737
  307SOL    HW2 2116   3.056   0.566   0.231  0.9399  0.8508 -0.1139
  308SOL     OW 2117   6.175   4.167   1.789 -0.7620 -0.1299 -0.0776
  308SOL    HW1 2118   6.089   4.200   1.762 -1.0820 -0.4670  0.5090
  308SOL    HW2 2119   6.229   4.246   1.799 -0.5750 -0.0030 -1.8501
  309SOL     OW 2120   4.736   4.146   8.457 -0.8710  0.0338 -0.4266
  309SOL    HW1 2121   4.754   4.069   8.511 -0.8935  0.2639 -0.0830
  309SOL    HW2 2122   4.683   4.113   8.385 -0.5550 -0.3392 -0.4953
  310SOL     OW 2123   8.095   3.783   1.144  1.1035 -0.6698  0.6487
  310SOL    HW1 2124   8.121   3.775   1.052 -0.9325  0.6258 -0.1135
  310SOL    HW2 2125   8.056   3.870   1.150  1.0082 -0.8105  2.7133
  311SOL     OW 2126   1.334   2.082   1.077 -0.0679 -0.2613  0.2865
  311SOL    HW1 2127   1.374   2.108   1.160  1.5447 -1.1129 -0.1742
  311SOL    HW2 2128   1.304   2.164   1.038  0.8285  0.3707  0.8876
  312SOL     OW 2129   0.635   2.026   8.374 -0.6100  0.5178 -0.2686
  312SOL    HW1 2130   0.604   2.016   8.464 -0.3188  1.1914 -0.0862
  312SOL    HW2 2131   0.578   2.093   8.336 -1.7917 -0.9251 -1.1033
  313SOL     OW 2132   1.266   2.195   2.615  0.0976 -0.8558 -0.3499
  313SOL    HW1 2133   1.206   2.268   2.631  0.9301  0.0426 -1.2619
  313SOL    HW2 2134   1.260   2.142   2.695 -0.3764  0.2902  0.3992
  314SOL     OW 2135   0.735   6.595   7.590 -0.4118  0.7529  0.6360
  314SOL    HW1 2136   0.782   6.595   7.673 -0.3181 -0.0347  0.5937
  314SOL    HW2 2137   0.700   6.506   7.582 -2.0823  1.3733  0.7559
  315SOL     OW 2138   2.858   5.894   7.775 -0.2445  0.3526  0.3510
  315SOL    HW1 2139   2.876   5.852   7.860 -1.1584 -1.6898 -0.4174
  315SOL    HW2 2140   2.801   5.968   7.797 -0.7851 -0.3713  1.4963
  316SOL     OW 2141   0.013   4.139   4.540  0.1382  0.2952  0.4349
  316SOL    HW1 2142  -0.075   4.105   4.557  0.7543 -0.7678  1.6167
  316SOL    HW2 2143   0.037   4.101   4.456 -0.3216  0.1702  0.3552
  317SOL     OW 2144   3.950   3.716   5.535 -0.4581  0.1953  0.5940
  317SOL    HW1 2145   4.034   3.672   5.550  0.7012  2.2069  0.3920
  317SOL    HW2 2146   3.915   3.675   5.455 -1.0138 -2.4754  2.0844
  318SOL     OW 2147   6.227   2.984   6.751 -0.3782  0.1580  0.7278
  318SOL    HW1 2148   6.202   2.892   6.760 -1.1126  0.5207  2.8201
  318SOL    HW2 2149   6.147   3.033   6.769 -0.2105  1.2394 -1.2335
  319SOL     OW 2150   0.135   4.784   8.458 -0.1336 -0.1143  0.5236
  319SOL    HW1 2151   0.059   4.728   8.445  0.7241 -0.8941 -1.6092
  319SOL    HW2 2152   0.099   4.867   8.490 -1.9306 -0.3373 -0.7766
  320SOL     OW 2153   7.673   3.335   5.029 -0.3896 -0.0373  0.4079
  320SOL    HW1 2154   7.739   3.287   5.080  1.6147 -0.3862 -2.3102
  320SOL    HW2 2155   7.641   3.271   4.966 -1.4633  0.8473  0.0358
  321SOL     OW 2156   1.141   1.371   2.577  0.2111 -0.1205 -0.0632
  321SOL    HW1 2157   1.219   1.426   2.567  0.4273 -0.3757  0.1857
  321SOL    HW2 2158   1.150   1.305   2.508  1.1266 -1.2050  1.0336
  322SOL     OW 2159   7.313   0.454   6.351 -0.2127 -0.5476  0.1951
  322SOL    HW1 2160   7.276   0.515   6.287 -1.2064  0.0981  1.3534
  322SOL    HW2 2161   7.245   0.444   6.417  1.0216 -0.7148  1.4821
  323SOL     OW 2162   6.188   2.864   4.368 -0.1807  0.8002  0.0052
  323SOL    HW1 2163   6.126   2.810   4.318  1.4770 -2.2779  1.0381
  323SOL    HW2 2164   6.206   2.938   4.310 -1.6413 -0.3566 -2.0938
  324SOL     OW 2165   5.525   5.752   3.377 -0.2683 -0.2251  0.4426
  324SOL    HW1 2166   5.522   5.809   3.301 -1.2011 -0.9169 -0.0643
  324SOL    HW2 2167   5.577   5.799   3.441  0.1123  0.5843 -0.4501
  325SOL     OW 2168   1.369   6.366   2.086  0.2989 -0.2424  0.0399
  325SOL    HW1 2169   1.379   6.451   2.129  3.5746 -0.1728 -0.5856
  325SOL    HW2 2170   1.444   6.360   2.027 -1.0641 -2.6484 -1.6390
  326SOL     OW 2171   7.257   4.946   5.145  0.0385 -0.0366  0.4337
  326SOL    HW1 2172   7.169   4.936   5.181  0.7940 -1.7073  1.9761
  326SOL    HW2 2173   7.309   4.975   5.220  0.8112  1.0743 -0.4938
  327SOL     OW 2174   2.204   4.116   0.729 -0.2472 -0.0219 -0.2448
  327SOL    HW1 2175   2.159   4.083   0.651 -1.3473  0.9544 -0.0617
  327SOL    HW2 2176   2.138   4.113   0.798  0.1204  0.9194  0.1706
  328SOL     OW 2177   4.200   2.547   6.064 -0.0614 -0.3334 -0.1415
  328SOL    HW1 2178   4.261   2.617   6.085  0.0973 -0.4614 -0.1744
  328SOL    HW2 2179   4.166   2.519   6.149 -0.4518  0.0747 -0.1581
  329SOL     OW 2180   6.216   3.040   7.206  0.3998 -1.1150 -0.4744
  329SOL    HW1 2181   6.286   3.103   7.225  0.2115 -0.8965 -0.5007
  329SOL    HW2 2182   6.135   3.087   7.227  0.1443 -0.6891 -2.2567
  330SOL     OW 2183   5.410   6.080   2.262 -0.2592 -0.2302  0.0632
  330SOL    HW1 2184   5.316   6.065   2.274 -0.4355 -0.1775 -1.1462
  330SOL    HW2 2185   5.419   6.175   2.263  0.3096 -0.1802  3.7066
  331SOL     OW 2186   1.949   2.742   4.728  0.6313 -0.9644  0.1121
  331SOL    HW1 2187   1.947   2.788   4.644 -0.5058  1.1748  1.2493
  331SOL    HW2 2188   1.857   2.718   4.744  0.7189 -0.6986  1.0708
  332SOL     OW 2189   2.780   2.986   0.255 -0.3307  0.3533 -0.2391
  332SOL    HW1 2190   2.809   2.950   0.339 -3.5630 -0.4274  0.6774
  332SOL    HW2 2191   2.848   3.048   0.231  0.6103  0.8169  3.1081
  333SOL     OW 2192   5.260   0.629   6.241 -0.3103  0.0807 -0.2304
  333SOL    HW1 2193   5.225   0.556   6.191 -2.4020  1.7563 -1.4115
  333SOL    HW2 2194   5.255   0.704   6.182  2.6161  1.0834  0.6059
  334SOL     OW 2195   7.420   7.040   6.485  0.1965 -0.2780 -0.5434
  334SOL    HW1 2196   7.500   6.988   6.476  0.1896 -0.1855 -1.2253
  334SOL    HW2 2197   7.387   7.048   6.395 -0.7519 -0.5845 -0.2307
  335SOL     OW 2198   1.090   3.659   5.024  0.3791  0.0117  0.3125
  335SOL    HW1 2199   1.156   3.628   5.086  1.0223  0.0075 -0.3595
  335SOL    HW2 2200   1.011   3.610   5.047  0.4726  0.3538  1.4228
  336SOL     OW 2201   2.485   6.078   7.509 -0.2962 -0.4748 -0.8082
  336SOL    HW1 2202   2.456   6.028   7.433 -2.5437  0.2518 -0.5033
  336SOL    HW2 2203   2.501   6.166   7.476 -2.0610  0.0531 -0.3655
  337SOL     OW 2204   3.052   1.238   4.778  0.0918 -0.7444  0.3323
  337SOL    HW1 2205   3.104   1.257   4.856 -0.2463 -1.5550  0.7765
  337SOL    HW2 2206   2.996   1.314   4.766  0.8249 -0.2038  0.3104
  338SOL     OW 2207   4.460   6.060   4.082 -0.5606 -0.3835 -0.0504
  338SOL    HW1 2208   4.421   6.017   4.158 -0.0165 -0.1365  0.3714
  338SOL    HW2 2209   4.505   5.991   4.034  0.5436 -0.2522  0.7704
  339SOL     OW 2210   1.218   4.656   6.200  0.0031 -0.2133 -0.2133
  339SOL    HW1 2211   1.307   4.625   6.182  0.2270 -0.7826  1.5790
  339SOL    HW2 2212   1.186   4.595   6.267 -0.9658  1.2104  0.6655
  340SOL     OW 2213   0.538   2.709   7.804  0.3227  0.0350 -0.1376
  340SOL    HW1 2214   0.560   2.714   7.897  1.8077 -0.7947 -0.4277
  340SOL    HW2 2215   0.463   2.769   7.795 -0.0960 -0.1446  1.6446
  341SOL     OW 2216   2.508   7.709   6.273 -0.1021 -0.0429 -0.2343
  341SOL    HW1 2217   2.587   7.670   6.234 -0.2668 -1.2726  0.6077
  341SOL    HW2 2218   2.436   7.656   6.239 -0.4374  0.2094  0.0740
  342SOL     OW 2219   4.150   0.622   3.232 -0.0657 -0.2311  0.0674
  342SOL    HW1 2220   4.241   0.652   3.237 -0.4676  1.1737 -0.7076
  342SOL    HW2 2221   4.153   0.550   3.169  0.3408  0.5606 -0.8466
  343SOL     OW 2222   0.418   5.366   1.624  0.3678  0.3209 -0.1694
  343SOL    HW1 2223   0.352   5.312   1.580 -0.0156  0.9533 -0.3934
  343SOL    HW2 2224   0.384   5.376   1.713 -0.5854  1.8169 -0.6705
  344SOL     OW 2225   7.044   0.845   6.821 -0.5734  0.3101  0.1212
  344SOL    HW1 2226   7.027   0.930   6.860  2.0745  0.3889  1.3142
  344SOL    HW2 2227   7.034   0.783   6.893 -0.4216 -0.1454 -0.2432
  345SOL     OW 2228   5.422   2.955   6.982 -0.0517 -0.2533  0.0478
  345SOL    HW1 2229   5.343   3.008   6.981 -0.3705 -0.7329 -0.3384
  345SOL    HW2 2230   5.399   2.878   7.034  0.6211  0.2940  1.2031
  346SOL     OW 2231   1.721   5.909   8.399 -0.0353  0.4004 -0.3695
  346SOL    HW1 2232   1.758   5.839   8.454  0.9401  0.3529 -1.0613
  346SOL    HW2 2233   1.792   5.933   8.340 -0.1391  2.4016  0.2445
  347SOL     OW 2234   6.362   4.262   3.063 -0.6290  0.0966  0.1830
  347SOL    HW1 2235   6.340   4.301   2.979  0.7671  0.8056  0.1279
  347SOL    HW2 2236   6.374   4.169   3.044 -0.1532  0.2821 -0.4331
  348SOL     OW 2237   5.666   5.645   1.935 -0.8398 -0.4535  0.5170
  348SOL    HW1 2238   5.706   5.724   1.899 -2.4882 -0.1867 -0.8782
  348SOL    HW2 2239   5.677   5.653   2.029 -1.4585  1.7378  0.4546
  349SOL     OW 2240   8.135   8.398   4.828  0.1472 -0.8093  0.4847
  349SOL    HW1 2241   8.194   8.334   4.868  2.3776 -0.4824 -1.9966
  349SOL    HW2 2242   8.181   8.482   4.837  0.2021 -0.5652 -1.6524
  350SOL     OW 2243   7.927   4.939   7.255  0.0305  0.3326 -0.7320
  350SOL    HW1 2244   7.860   4.874   7.233 -0.0052  0.4556 -0.9850
  350SOL    HW2 2245   7.984   4.894   7.317 -0.8748  0.5521  0.2893
  351SOL     OW 2246   8.120   0.069   7.093 -0.0340 -0.3885  0.1524
  351SOL    HW1 2247   8.158  -0.017   7.114  0.0900 -0.6544 -1.0396
  351SOL    HW2 2248   8.055   0.084   7.162  0.2095 -1.2670  0.5962
  352SOL     OW 2249   8.501   0.929   4.460  0.0460 -0.0426  0.0811
  352SOL    HW1 2250   8.423   0.981   4.478  0.7145  0.2573  2.4641
  352SOL    HW2 2251   8.468   0.845   4.428 -1.2210  0.3178  0.4127
  353SOL     OW 2252   6.051   7.192   0.442 -0.2462 -0.0223 -0.1185
  353SOL    HW1 2253   6.105   7.113   0.442 -0.6934 -0.3288  0.2802
  353SOL    HW2 2254   6.112   7.262   0.418  0.2712 -0.4045  0.0671
  354SOL     OW 2255   2.004   3.304   1.528 -0.2657 -0.5709  0.0188
  354SOL    HW1 2256   1.998   3.305   1.624  0.1139 -0.4717  0.0435
  354SOL    HW2 2257   1.935   3.245   1.500  0.5372 -1.7457  0.4234
  355SOL     OW 2258   5.349   4.256   0.639 -0.1966  0.0351  0.3754
  355SOL    HW1 2259   5.442   4.276   0.633 -0.4365  0.8948 -0.9166
  355SOL    HW2 2260   5.327   4.222   0.552 -0.7640 -1.7379  1.1488
  356SOL     OW 2261   3.354   3.004   7.468  0.0353  0.4657 -0.1569
  356SOL    HW1 2262   3.367   3.071   7.401 -1.6989  1.0523  0.0387
  356SOL    HW2 2263   3.376   2.922   7.424  0.0766  0.9530 -1.0787
  357SOL     OW 2264   6.822   6.657   5.167 -0.7944  0.7369 -0.3428
  357SOL    HW1 2265   6.790   6.690   5.251  2.0509  0.1437  1.0762
  357SOL    HW2 2266   6.816   6.562   5.174  1.8977  0.5518  0.3364
  358SOL     OW 2267   2.859   3.249   4.890 -0.4883 -0.0675  0.3337
  358SOL    HW1 2268   2.949   3.280   4.882 -0.7996  0.9021  0.3317
  358SOL    HW2 2269   2.832   3.278   4.977 -0.9396  0.0541  0.1571
  359SOL     OW 2270   8.410   2.744   3.535 -0.0884 -0.1189 -0.2838
  359SOL    HW1 2271   8.482   2.767   3.476  0.3266 -2.3876 -0.7434
  359SOL    HW2 2272   8.334   2.735   3.477  0.0034 -0.9461 -0.2831
  360SOL     OW 2273   3.009   3.163   1.251 -0.3221 -0.1246  0.4165
  360SOL    HW1 2274   3.060   3.229   1.204  1.1223 -2.2894 -1.3069
  360SOL    HW2 2275   3.067   3.132   1.321 -0.6532 -0.1394  0.6884
  361SOL     OW 2276   5.521   5.970   7.982  0.7556  0.0174  0.0261
  361SOL    HW1 2277   5.430   5.961   7.953  1.0985 -0.3934 -0.9816
  361SOL    HW2 2278   5.543   5.883   8.018  1.4580 -0.6812 -1.9338
  362SOL     OW 2279   6.410   6.692   6.767  0.0544  0.5799 -0.2877
  362SOL    HW1 2280   6.341   6.733   6.819 -0.4984 -1.5043  0.7092
  362SOL    HW2 2281   6.389   6.714   6.676 -0.4137  2.1359  0.1731
  363SOL     OW 2282   3.008   7.304   7.618  0.2372  0.8420 -0.1485
  363SOL    HW1 2283   3.030   7.212   7.630  0.2267  0.9800  1.0662
  363SOL    HW2 2284   3.038   7.325   7.530 -0.4493 -0.5120 -0.7329
  364SOL     OW 2285   2.252   5.336   7.771 -0.1126 -0.2161  0.0784
  364SOL    HW1 2286   2.289   5.275   7.835 -0.2807  1.5792  2.0332
  364SOL    HW2 2287   2.197   5.282   7.715  1.9700 -2.2733 -0.1412
  365SOL     OW 2288   0.401   1.977   5.591 -0.2454  0.2369  0.1703
  365SOL    HW1 2289   0.468   2.045   5.600  0.2207 -0.2414  0.3348
  365SOL    HW2 2290   0.411   1.946   5.501 -1.5760  1.5386 -0.4607
  366SOL     OW 2291   1.239   8.033   0.318  0.7008 -0.9281 -0.3473
  366SOL    HW1 2292   1.241   8.122   0.283  1.9304 -0.1570  1.5365
  366SOL    HW2 2293   1.163   8.031   0.375 -0.2583 -1.6283 -1.5916
  367SOL     OW 2294   1.796   4.634   4.484 -0.0442  0.2191 -0.0978
  367SOL    HW1 2295   1.882   4.623   4.525 -0.0355 -0.3874 -0.2652
  367SOL    HW2 2296   1.766   4.720   4.514  0.3054  0.1292  0.5293
  368SOL     OW 2297   4.348   3.370   2.812  0.0477  0.0603 -0.3707
  368SOL    HW1 2298   4.384   3.362   2.901 -1.7110  1.7276  0.5686
  368SOL    HW2 2299   4.363   3.284   2.772 -1.0708 -1.5173  2.3239
  369SOL     OW 2300   4.301   8.224   6.519 -0.1619  0.7758 -0.2725
  369SOL    HW1 2301   4.230   8.267   6.567  0.1825  2.1290 -0.9304
  369SOL    HW2 2302   4.265   8.206   6.433 -0.9214 -2.0515  0.5190
  370SOL     OW 2303   7.350   3.086   4.093  0.1000  0.5271 -0.0283
  370SOL    HW1 2304   7.389   3.173   4.091 -0.3290  0.7241  0.1850
  370SOL    HW2 2305   7.390   3.040   4.018  0.1267  0.9857 -0.2976
  371SOL     OW 2306   4.664   7.397   1.953  0.7688 -0.7429  0.6929
  371SOL    HW1 2307   4.643   7.430   1.866  1.3815  0.0924  0.8474
  371SOL    HW2 2308   4.755   7.368   1.946  0.5644 -1.4379  0.8436
  372SOL     OW 2309   0.086   0.664   4.705 -0.3121 -0.3700  0.0299
  372SOL    HW1 2310   0.050   0.576   4.711 -0.2637 -0.2742  2.6050
  372SOL    HW2 2311   0.162   0.655   4.648 -0.0525 -2.0786  0.6035
  373SOL     OW 2312   2.354   5.665   5.744  0.4551 -0.2621 -0.2999
  373SOL    HW1 2313   2.357   5.629   5.832  2.0852 -0.0834 -0.2466
  373SOL    HW2 2314   2.319   5.753   5.755 -2.8830 -1.4301 -0.3451
  374SOL     OW 2315   5.511   4.207   0.322  0.3334  0.8453 -0.3771
  374SOL    HW1 2316   5.427   4.200   0.367  1.3152  1.6466  1.7041
  374SOL    HW2 2317   5.511   4.295   0.286  0.8414  1.3991  0.9129
  375SOL     OW 2318   1.055   8.469   2.531 -0.0802 -0.2217  0.0045
  375SOL    HW1 2319   1.082   8.559   2.552  0.0610 -0.2363 -0.1145
  375SOL    HW2 2320   0.975   8.480   2.480 -0.3590 -0.1810  0.4419
  376SOL     OW 2321   3.570   5.421   0.756  0.0295 -0.1552 -0.1527
  376SOL    HW1 2322   3.501   5.455   0.814 -1.5717 -0.2928 -1.8679
  376SOL    HW2 2323   3.597   5.339   0.796 -1.1428 -0.3269  0.3344
  377SOL     OW 2324   2.319   2.038   5.381 -0.0014  0.1006 -0.1563
  377SOL    HW1 2325   2.266   2.028   5.303  1.4022 -0.3848 -1.0863
  377SOL    HW2 2326   2.265   2.089   5.441 -1.6209 -0.6429 -0.9318
  378SOL     OW 2327   4.394   2.772   4.469  0.3630 -0.0630  0.0867
  378SOL    HW1 2328   4.421   2.734   4.553  0.2409 -0.8707 -0.2279
  378SOL    HW2 2329   4.475   2.780   4.419  0.6483  1.6789  0.7423
  379SOL     OW 2330   0.075   2.966   1.662 -0.0555 -0.3838 -0.2453
  379SOL    HW1 2331   0.099   2.878   1.634  1.1049  0.1443 -1.0001
  379SOL    HW2 2332  -0.018   2.973   1.641  0.2297 -0.8490 -1.7685
  380SOL     OW 2333   0.469   3.909   8.605 -0.1312  0.4420  0.4300
  380SOL    HW1 2334   0.424   3.972   8.661 -1.8833 -1.1809  0.9226
  380SOL    HW2 2335   0.401   3.847   8.578  1.1954 -0.3326 -1.3706
  381SOL     OW 2336   1.809   2.542   1.878 -0.3953  0.0007  0.3129
  381SOL    HW1 2337   1.873   2.580   1.818 -1.2900 -0.4700 -0.9995
  381SOL    HW2 2338   1.775   2.616   1.928  0.3205  0.4237  0.1817
  382SOL     OW 2339   6.048   3.559   2.732  0.2631 -0.1692 -0.9510
  382SOL    HW1 2340   5.953   3.543   2.731  0.3419 -0.6492 -0.8405
  382SOL    HW2 2341   6.080   3.517   2.653  0.6366 -1.6366 -0.0600
  383SOL     OW 2342   2.593   3.929   2.696 -0.2110 -0.1432  0.0455
  383SOL    HW1 2343   2.543   3.901   2.619 -2.2089  1.4546  0.6682
  383SOL    HW2 2344   2.588   4.024   2.694 -0.1028 -0.0579  2.0185
  384SOL     OW 2345   6.491   3.050   6.888  0.0878  0.1651  0.6165
  384SOL    HW1 2346   6.397   3.037   6.869 -0.1668 -0.7788  2.3518
  384SOL    HW2 2347   6.522   2.963   6.912  1.5733  0.3621 -0.4769
  385SOL     OW 2348   0.104   5.599   2.249  0.0992 -0.0178 -0.5752
  385SOL    HW1 2349   0.159   5.651   2.192 -0.2457 -0.0844 -0.9780
  385SOL    HW2 2350   0.165   5.551   2.306  0.4682 -0.3974 -1.2785
  386SOL     OW 2351   4.838   5.504   0.564 -0.7468  0.3156  0.9031
  386SOL    HW1 2352   4.789   5.499   0.482  1.8841 -2.1580 -0.7190
  386SOL    HW2 2353   4.820   5.592   0.597 -0.7780  2.0519 -3.1003
  387SOL     OW 2354   3.517   7.683   7.929  0.2807 -0.6733  0.2926
  387SOL    HW1 2355   3.562   7.687   7.845  1.7275 -0.8877  1.0335
  387SOL    HW2 2356   3.529   7.592   7.957 -0.3395 -0.6442  0.6599
  388SOL     OW 2357   1.450   7.331   7.922 -0.1630 -0.1102  0.2139
  388SOL    HW1 2358   1.492   7.350   7.838 -1.0539  1.8697  0.1682
  388SOL    HW2 2359   1.445   7.235   7.925  0.5859 -0.2481 -1.6181
  389SOL     OW 2360   0.907   1.447   6.720  0.1408 -0.3087 -0.6755
  389SOL    HW1 2361   0.956   1.380   6.672  0.3928  0.1219 -1.0273
  389SOL    HW2 2362   0.975   1.499   6.763 -0.0916 -0.8860  0.4248
  390SOL     OW 2363   7.988   8.527   5.248  0.3359 -0.0328  0.1712
  390SOL    HW1 2364   8.069   8.576   5.237 -0.1821  0.8547  0.1900
  390SOL    HW2 2365   7.992   8.459   5.181  0.2238  1.2038 -1.1371
  391SOL     OW 2366   0.536   6.750   0.597 -0.5829 -0.4342 -0.3204
  391SOL    HW1 2367   0.470   6.775   0.532 -3.4650 -2.0450  1.7444
  391SOL    HW2 2368   0.570   6.666   0.565 -2.9877 -1.9295  0.7070
  392SOL     OW 2369   2.528   3.905   5.293  0.5450  0.3046 -0.1317
  392SOL    HW1 2370   2.560   3.963   5.224  0.2895  0.9311  0.2666
  392SOL    HW2 2371   2.541   3.955   5.374 -2.7857  1.2469 -0.0371
  393SOL     OW 2372   5.251   4.856   8.093 -0.1255 -0.3037 -0.8949
  393SOL    HW1 2373   5.213   4.784   8.142 -0.4059  1.5597  1.8184
  393SOL    HW2 2374   5.178   4.892   8.042 -0.9753  0.4364  0.7811
  394SOL     OW 2375   7.645   2.180   1.105 -0.4661  0.5296 -0.6579
  394SOL    HW1 2376   7.632   2.085   1.100 -2.5863  0.7721 -0.8965
  394SOL    HW2 2377   7.711   2.191   1.173 -1.6469 -1.0670  0.8627
  395SOL     OW 2378   6.651   7.482   2.098 -0.1582 -0.6412 -0.2481
  395SOL    HW1 2379   6.677   7.507   2.010  1.1392 -0.5199  0.1472
  395SOL    HW2 2380   6.712   7.412   2.122  1.3615  1.1936  1.5685
  396SOL     OW 2381   3.074   2.677   6.156 -0.3087  0.2979  0.0165
  396SOL    HW1 2382   3.118   2.636   6.082 -0.2628  0.8568 -0.2729
  396SOL    HW2 2383   3.029   2.753   6.118 -0.7512  0.2665  0.4644
  397SOL     OW 2384   0.417   6.814   2.975 -0.1078  0.1983 -0.2992
  397SOL    HW1 2385   0.418   6.896   2.925 -0.6793  0.0734 -0.5201
  397SOL    HW2 2386   0.389   6.841   3.063  0.4425  0.3481 -0.1641
  398SOL     OW 2387   0.180   6.649   8.055 -0.1533  0.4426 -0.4657
  398SOL    HW1 2388   0.109   6.658   7.992 -1.0459 -0.0760  0.4247
  398SOL    HW2 2389   0.187   6.735   8.096 -1.3686  0.0867  0.5456
  399SOL     OW 2390   5.076   7.452   8.060  0.0849  0.3816  0.4892
  399SOL    HW1 2391   5.146   7.395   8.026 -0.2441  0.1403  0.2123
  399SOL    HW2 2392   5.006   7.391   8.083  0.4161  0.4960  1.9209
  400SOL     OW 2393   5.267   4.991   6.278 -0.7136  0.0474  0.1986
  400SOL    HW1 2394   5.255   5.082   6.252 -0.7914 -0.2031 -0.6522
  400SOL    HW2 2395   5.183   4.965   6.316 -1.1280 -0.0488 -0.7465
  401SOL     OW 2396   7.861   6.296   7.750 -0.3809 -0.5821  0.0398
  401SOL    HW1 2397   7.918   6.260   7.682  0.2699 -2.9133  1.6778
  401SOL    HW2 2398   7.835   6.219   7.802 -1.3724  1.0055  2.0133
  402SOL     OW 2399   3.027   6.730   5.465  0.2195  0.9847 -0.4922
  402SOL    HW1 2400   2.951   6.788   5.473 -1.6110 -1.4406  1.0367
  402SOL    HW2 2401   3.095   6.773   5.516 -1.8929  0.6768  2.8761
  403SOL     OW 2402   4.048   3.230   7.066  0.3190 -0.0221 -0.2220
  403SOL    HW1 2403   4.009   3.293   7.127 -0.4800 -1.7189  1.1277
  403SOL    HW2 2404   4.071   3.282   6.989 -0.8741  1.7876  0.5636
  404SOL     OW 2405   1.366   8.576   3.350 -0.0992  0.6958  0.4049
  404SOL    HW1 2406   1.273   8.570   3.329 -0.0954  1.4254  0.1340
  404SOL    HW2 2407   1.391   8.488   3.378 -0.2111 -0.2302 -2.1364
  405SOL     OW 2408   3.280   4.342   1.950 -0.5354 -0.3310 -0.0116
  405SOL    HW1 2409   3.265   4.248   1.940  0.0214 -0.4367  0.1409
  405SOL    HW2 2410   3.364   4.358   1.907 -1.0561  0.2575 -0.8312
  406SOL     OW 2411   4.565   6.412   7.828  0.1558 -0.4369  0.4627
  406SOL    HW1 2412   4.504   6.372   7.767 -0.3702 -0.2561  0.8623
  406SOL    HW2 2413   4.556   6.506   7.813  0.3079 -0.4086  0.5492
  407SOL     OW 2414   7.594   7.937   7.264 -0.4976  0.6510 -0.1329
  407SOL    HW1 2415   7.508   7.942   7.306 -0.1799  1.2392  0.4670
  407SOL    HW2 2416   7.594   8.011   7.202 -0.0274  1.3236  0.6487
  408SOL     OW 2417   8.308   2.274   3.939 -0.3608 -0.3231 -0.1080
  408SOL    HW1 2418   8.260   2.211   3.884 -0.7835 -2.0098  2.0774
  408SOL    HW2 2419   8.325   2.227   4.020  4.2256  0.5140 -0.3174
  409SOL     OW 2420   3.958   7.760   6.870 -0.2805 -0.3270 -0.2852
  409SOL    HW1 2421   3.960   7.830   6.936 -1.2763 -0.5732  0.0274
  409SOL    HW2 2422   4.028   7.783   6.809  0.4647  0.0777  0.6875
  410SOL     OW 2423   2.854   7.206   7.099 -0.0985  0.0762  0.0039
  410SOL    HW1 2424   2.815   7.282   7.143  0.8397  1.2970 -1.1824
  410SOL    HW2 2425   2.868   7.235   7.009  0.8191 -1.3205 -0.3389
  411SOL     OW 2426   1.784   7.984   2.751  0.4073 -0.1324  0.1236
  411SOL    HW1 2427   1.732   7.956   2.675 -0.7488  0.6250  0.6022
  411SOL    HW2 2428   1.807   7.902   2.796 -1.1913 -0.4649  0.4013
  412SOL     OW 2429   1.516   1.191   0.661  0.1590 -0.0075 -0.3955
  412SOL    HW1 2430   1.540   1.248   0.588  0.0625 -0.1904 -0.5700
  412SOL    HW2 2431   1.511   1.104   0.623 -0.0075 -0.0867 -0.1949
  413SOL     OW 2432   1.613   8.289   1.228  0.0016 -0.0135  0.0498
  413SOL    HW1 2433   1.654   8.352   1.287  0.7026 -0.3157 -0.1113
  413SOL    HW2 2434   1.684   8.231   1.201 -0.7925 -1.4932  0.9695
  414SOL     OW 2435   3.234   6.014   6.310  0.1243 -0.2091  0.6562
  414SOL    HW1 2436   3.145   6.024   6.345 -0.1754  0.9065 -0.3779
  414SOL    HW2 2437   3.221   5.989   6.219  0.8715  0.4445  0.3657
  415SOL     OW 2438   0.782   1.125   5.804  0.0460  0.0850 -0.4855
  415SOL    HW1 2439   0.835   1.202   5.826 -0.8158  0.5016  0.1841
  415SOL    HW2 2440   0.754   1.091   5.888 -1.2242  0.2110 -0.8371
  416SOL     OW 2441   5.580   1.046   4.317  0.0090  0.0591 -0.1322
  416SOL    HW1 2442   5.508   1.058   4.379  1.8650  1.1702  1.9046
  416SOL    HW2 2443   5.656   1.084   4.360  1.6423 -0.1288 -2.6489
  417SOL     OW 2444   8.163   0.303   4.632  0.7541 -0.1030 -0.0851
  417SOL    HW1 2445   8.184   0.301   4.538  2.3808 -1.1104  0.2579
  417SOL    HW2 2446   8.128   0.216   4.651  0.5212  0.0639  0.2646
  418SOL     OW 2447   2.859   3.345   0.556  0.4059 -0.0115  0.0478
  418SOL    HW1 2448   2.904   3.268   0.590  1.2741  0.2941 -0.3800
  418SOL    HW2 2449   2.895   3.356   0.468  0.6411  1.1590  0.2833
  419SOL     OW 2450   2.389   0.007   3.792 -0.3602  0.0179  0.5054
  419SOL    HW1 2451   2.306  -0.022   3.829 -1.5108 -0.1856 -2.0857
  419SOL    HW2 2452   2.397  -0.040   3.709  1.8211  0.8570  0.1720
  420SOL     OW 2453   7.682   8.081   5.766  0.5590 -0.2241  0.0231
  420SOL    HW1 2454   7.776   8.081   5.785  0.5973  0.2006 -0.1597
  420SOL    HW2 2455   7.676   8.104   5.673  0.2864 -0.5491 -0.0411
  421SOL     OW 2456   4.648   8.040   1.203  0.0735 -0.4217 -0.0590
  421SOL    HW1 2457   4.663   8.112   1.142  0.5423 -0.8287 -0.4357
  421SOL    HW2 2458   4.692   8.067   1.284  0.2149 -0.2729 -0.1863
  422SOL     OW 2459   2.752   7.868   6.404  0.0303 -0.0697 -0.1416
  422SOL    HW1 2460   2.825   7.901   6.457 -0.4525  1.1222 -0.1890
  422SOL    HW2 2461   2.731   7.784   6.444  1.3671 -0.3999 -0.0730
  423SOL     OW 2462   7.106   6.959   2.191  0.3663  0.2296 -0.2436
  423SOL    HW1 2463   7.144   6.988   2.108  0.1581 -1.8715 -1.1269
  423SOL    HW2 2464   7.044   6.890   2.167 -1.4624  1.1437  1.4699
  424SOL     OW 2465   4.665   0.097   6.202  0.4678 -0.2043  0.4831
  424SOL    HW1 2466   4.732   0.138   6.147  0.4970  0.0903  0.7345
  424SOL    HW2 2467   4.611   0.046   6.141  0.8593 -0.3630  0.2638
  425SOL     OW 2468   4.461   5.891   0.300  0.0923 -0.5715  0.0596
  425SOL    HW1 2469   4.371   5.857   0.305  0.0416 -0.5239 -0.5281
  425SOL    HW2 2470   4.457   5.963   0.238  0.8585 -1.6417 -1.2796
  426SOL     OW 2471   3.278   4.153   6.696  0.3246 -0.3483 -0.0540
  426SOL    HW1 2472   3.265   4.247   6.708  1.0064 -0.4596  1.8416
  426SOL    HW2 2473   3.292   4.119   6.784  0.3462 -2.2004 -0.7288
  427SOL     OW 2474   4.974   4.801   1.568 -0.0455 -0.0707 -0.8968
  427SOL    HW1 2475   5.061   4.843   1.570 -0.4931  0.8417  0.3127
  427SOL    HW2 2476   4.958   4.785   1.475  0.5569  1.6352 -1.3268
  428SOL     OW 2477   7.404   5.467   7.549  0.2531  0.3780 -0.4880
  428SOL    HW1 2478   7.407   5.546   7.604  0.8327 -0.8187  1.2946
  428SOL    HW2 2479   7.484   5.471   7.498  0.2666  0.9648 -0.4302
  429SOL     OW 2480   2.623   2.340   7.007  0.0055  0.2929  0.4152
  429SOL    HW1 2481   2.600   2.429   7.034 -2.1226 -0.7135  2.1822
  429SOL    HW2 2482   2.616   2.288   7.087 -2.0980 -2.0565 -1.1435
  430SOL     OW 2483   3.165   7.733   4.232 -0.2251 -0.0071 -0.1346
  430SOL    HW1 2484   3.167   7.658   4.292  0.7753 -0.8443 -1.1500
  430SOL    HW2 2485   3.163   7.693   4.145 -1.2546  1.1740 -0.6788
  431SOL     OW 2486   3.786   1.102   2.582 -0.5740 -0.4453  0.5102
  431SOL    HW1 2487   3.734   1.165   2.533  1.2700 -0.2910 -1.4276
  431SOL    HW2 2488   3.757   1.111   2.672 -2.8284  0.6233 -0.2572
  432SOL     OW 2489   0.673   2.641   0.486 -0.6449  0.2326 -0.2711
  432SOL    HW1 2490   0.637   2.595   0.410 -1.8562  0.1823  0.2919
  432SOL    HW2 2491   0.767   2.641   0.473 -0.7544 -0.8059 -1.1960
  433SOL     OW 2492   4.927   6.165   1.561 -0.2845 -0.3566 -0.6567
  433SOL    HW1 2493   4.847   6.160   1.508 -0.9942 -0.5034  0.3986
  433SOL    HW2 2494   4.929   6.256   1.591 -0.2169 -0.4301 -0.4405
  434SOL     OW 2495   5.232   4.218   7.110  0.0799 -0.4378 -0.0914
  434SOL    HW1 2496   5.302   4.170   7.155  1.3936  1.5988  0.1536
  434SOL    HW2 2497   5.275   4.257   7.033 -1.2847 -0.8222 -1.0878
  435SOL     OW 2498   5.190   3.986   5.290  0.4711 -0.9904 -0.2855
  435SOL    HW1 2499   5.264   4.047   5.293 -0.7462  0.5353  0.3143
  435SOL    HW2 2500   5.150   4.003   5.205 -0.2636 -0.4368  0.1600
  436SOL     OW 2501   0.095   1.851   0.568  0.1702  0.0806 -0.3295
  436SOL    HW1 2502   0.099   1.933   0.519  0.6185 -0.9151 -2.0360
  436SOL    HW2 2503   0.008   1.816   0.549 -0.6989  0.9385  1.7921
  437SOL     OW 2504   5.828   4.260   0.724 -0.3432  0.2645 -0.0372
  437SOL    HW1 2505   5.834   4.346   0.766 -0.8596  0.6540 -0.7431
  437SOL    HW2 2506   5.918   4.238   0.701 -0.3008  1.0230 -0.6465
  438SOL     OW 2507   1.899   8.250   1.848 -0.3721  0.2615  0.1528
  438SOL    HW1 2508   1.897   8.329   1.902 -0.6736  0.5858 -0.3318
  438SOL    HW2 2509   1.884   8.179   1.911 -0.4198  0.6123  0.5463
  439SOL     OW 2510   2.017   2.828   3.511 -0.4253  0.1162 -0.3047
  439SOL    HW1 2511   2.072   2.778   3.452  0.7336  1.0025 -0.0129
  439SOL    HW2 2512   1.979   2.897   3.457 -1.6615 -0.7691 -0.6083
  440SOL     OW 2513   6.543   5.992   3.686 -0.1922  0.4248  0.3877
  440SOL    HW1 2514   6.592   5.915   3.658 -1.8999 -0.2893 -0.8227
  440SOL    HW2 2515   6.607   6.063   3.685  0.6656 -0.2856 -1.9327
  441SOL     OW 2516   2.359   4.301   7.427  0.2031 -0.5957  0.1380
  441SOL    HW1 2517   2.319   4.274   7.344  0.8739  1.4330 -0.9043
  441SOL    HW2 2518   2.453   4.287   7.414  0.2574 -1.0288  0.8900
  442SOL     OW 2519   5.878   8.333   4.033  0.5986 -0.9438 -0.8395
  442SOL    HW1 2520   5.833   8.335   3.948 -1.0688  1.1874 -0.0106
  442SOL    HW2 2521   5.967   8.362   4.013  0.1637 -0.2212 -1.8591
  443SOL     OW 2522   1.128   0.141   6.780  0.0534  0.1776  0.3490
  443SOL    HW1 2523   1.170   0.055   6.779 -1.0905 -0.4440  1.7250
  443SOL    HW2 2524   1.184   0.196   6.726  2.6525 -0.5950  2.0724
  444SOL     OW 2525   4.819   5.737   2.450  0.0406  0.1861 -0.2986
  444SOL    HW1 2526   4.790   5.672   2.385 -0.0489  0.5451 -0.6164
  444SOL    HW2 2527   4.737   5.768   2.490  0.1171 -0.3510  0.2990
  445SOL     OW 2528   3.557   0.237   5.088  0.5774  0.3901  0.4640
  445SOL    HW1 2529   3.507   0.313   5.118  2.0881  0.6844  2.4883
  445SOL    HW2 2530   3.495   0.187   5.035 -0.5782  2.8091 -0.6638
  446SOL     OW 2531   5.292   5.232   7.181 -0.2338  0.0380  0.4564
  446SOL    HW1 2532   5.238   5.310   7.192 -2.3081 -1.3214  0.5054
  446SOL    HW2 2533   5.229   5.161   7.165  1.6221 -1.4401 -0.7513
  447SOL     OW 2534   0.811   0.148   5.142  0.1806 -0.4451  0.2643
  447SOL    HW1 2535   0.898   0.143   5.102 -0.0031  2.8680 -0.8810
  447SOL    HW2 2536   0.819   0.216   5.208 -1.5445 -0.0246  0.0804
  448SOL     OW 2537   5.658   3.224   3.066  0.1785  0.3622 -0.5856
  448SOL    HW1 2538   5.609   3.205   2.986  0.1569  1.2264 -0.7852
  448SOL    HW2 2539   5.742   3.258   3.035  0.4621 -0.0189 -0.2417
  449SOL     OW 2540   3.428   5.114   1.253 -0.0365 -0.3820 -0.2839
  449SOL    HW1 2541   3.483   5.176   1.301 -0.5665 -1.3917  1.7232
  449SOL    HW2 2542   3.479   5.091   1.175  1.0467  0.9676 -0.0058
  450SOL     OW 2543   5.175   3.494   3.045 -0.1487 -0.3429 -0.8655
  450SOL    HW1 2544   5.167   3.407   3.008 -0.2662 -0.0240 -1.6073
  450SOL    HW2 2545   5.107   3.545   3.002 -0.7198 -0.1158  0.2665
  451SOL     OW 2546   4.844   1.598   4.096 -0.4313  0.4042 -0.6413
  451SOL    HW1 2547   4.900   1.612   4.020  0.7225 -0.3252  0.0526
  451SOL    HW2 2548   4.760   1.639   4.072  0.3091  1.3003 -1.7865
  452SOL     OW 2549   0.305   8.360   6.236  0.1462  0.1977 -0.5014
  452SOL    HW1 2550   0.262   8.394   6.158  0.4965  2.0216  0.0598
  452SOL    HW2 2551   0.244   8.295   6.271 -0.2662 -0.2350 -1.9457
  453SOL     OW 2552   7.132   4.124   3.872  0.0083  0.2665 -0.4050
  453SOL    HW1 2553   7.170   4.088   3.952  1.4168  1.3878 -0.5297
  453SOL    HW2 2554   7.042   4.148   3.896  0.6506  1.2845  1.0711
  454SOL     OW 2555   4.170   2.066   4.100  0.1294  0.3261 -0.2233
  454SOL    HW1 2556   4.266   2.066   4.101  0.1534 -1.0630 -0.6581
  454SOL    HW2 2557   4.145   1.995   4.159 -0.5981 -0.1419 -1.0632
  455SOL     OW 2558   6.104   0.743   8.327  0.1257  0.0452  0.4817
  455SOL    HW1 2559   6.091   0.837   8.324 -0.9968 -0.1079 -0.8277
  455SOL    HW2 2560   6.078   0.718   8.415 -0.8513  0.8128  0.4277
  456SOL     OW 2561   2.446   2.838   3.522 -0.3129  0.4149  0.0441
  456SOL    HW1 2562   2.385   2.773   3.490  0.4501 -0.0607 -0.4802
  456SOL    HW2 2563   2.408   2.922   3.496 -0.9206  0.1416  0.0487
  457SOL     OW 2564   3.513   5.997   0.853  0.2047 -0.5332  0.1837
  457SOL    HW1 2565   3.564   6.059   0.905  1.1453 -1.3994  0.3139
  457SOL    HW2 2566   3.424   6.032   0.856  0.4493  0.0583  1.4198
  458SOL     OW 2567   1.986   8.580   6.343 -0.0462  0.1480  0.3555
  458SOL    HW1 2568   1.975   8.610   6.433  0.3788 -0.0853  0.4844
  458SOL    HW2 2569   2.069   8.533   6.343 -0.2581 -0.2339 -0.0574
  459SOL     OW 2570   2.134   3.716   4.330  0.0501  0.2068  0.5270
  459SOL    HW1 2571   2.216   3.704   4.378  1.3907 -0.0100 -1.6717
  459SOL    HW2 2572   2.155   3.693   4.240 -2.8639 -1.4482  0.1296
  460SOL     OW 2573   8.559   1.916   4.098 -0.1807 -0.0951 -0.0680
  460SOL    HW1 2574   8.522   1.927   4.011 -0.3355 -0.3918 -0.0400
  460SOL    HW2 2575   8.505   1.849   4.139  1.1239 -1.4090 -0.4335
  461SOL     OW 2576   2.732   0.825   3.510 -0.1724 -0.0967  0.1102
  461SOL    HW1 2577   2.715   0.753   3.449  0.7934 -1.2444  1.1378
  461SOL    HW2 2578   2.650   0.875   3.512 -0.5664 -0.6380 -1.2937
  462SOL     OW 2579   0.904   3.469   6.014  0.1464  0.5259  0.4597
  462SOL    HW1 2580   0.971   3.410   6.050 -0.0685  0.2643  0.4390
  462SOL    HW2 2581   0.838   3.474   6.083  0.2017  0.8025  0.4899
  463SOL     OW 2582   4.002   0.492   3.890  0.0479  0.1777 -0.7359
  463SOL    HW1 2583   4.015   0.456   3.803 -0.2092  0.7218 -1.0059
  463SOL    HW2 2584   4.084   0.538   3.910 -0.3169  1.0665 -1.1973
  464SOL     OW 2585   0.297   6.469   2.953  0.0311  0.2977  0.0130
  464SOL    HW1 2586   0.381   6.513   2.952 -0.6623  1.7194  0.9954
  464SOL    HW2 2587   0.275   6.459   3.045 -0.5307 -0.7766 -0.2074
  465SOL     OW 2588   0.832   3.860   4.207 -0.0189 -0.3561 -0.2590
  465SOL    HW1 2589   0.800   3.832   4.121 -0.8352 -0.4807  0.0798
  465SOL    HW2 2590   0.754   3.865   4.261  0.2938  1.1897  0.0882
  466SOL     OW 2591   0.457   6.447   5.715  0.7973  0.2470 -0.4873
  466SOL    HW1 2592   0.438   6.540   5.728 -0.1764  0.0146 -0.2198
  466SOL    HW2 2593   0.535   6.447   5.660  1.1239  1.2230 -0.0478
  467SOL     OW 2594   7.469   3.393   1.512 -0.2265 -0.3545 -0.3168
  467SOL    HW1 2595   7.450   3.426   1.424  0.9296 -1.3884 -0.9947
  467SOL    HW2 2596   7.422   3.309   1.517 -3.1632  1.2280  1.3920
  468SOL     OW 2597   4.660   3.077   6.861 -0.1279  0.3148 -0.3069
  468SOL    HW1 2598   4.700   3.014   6.800 -0.9804  0.0768 -0.6285
  468SOL    HW2 2599   4.716   3.073   6.938 -1.4569 -2.6431  0.6476
  469SOL     OW 2600   4.837   4.121   0.911 -0.4042  0.6040  0.4337
  469SOL    HW1 2601   4.752   4.128   0.955 -0.7161  1.5910 -0.2877
  469SOL    HW2 2602   4.824   4.164   0.827  0.4777 -0.3316 -0.2046
  470SOL     OW 2603   2.084   6.845   0.191 -0.2037 -0.0514  0.3114
  470SOL    HW1 2604   2.168   6.822   0.151 -0.6412 -0.4534 -0.3920
  470SOL    HW2 2605   2.020   6.794   0.142 -0.9287  0.7757  0.3840
  471SOL     OW 2606   3.257   8.167   3.496 -0.3011 -0.5542  0.5267
  471SOL    HW1 2607   3.200   8.156   3.573 -0.2608 -1.8904  0.3859
  471SOL    HW2 2608   3.234   8.094   3.439  0.6102 -0.3318 -0.1383
  472SOL     OW 2609   6.098   1.192   1.123  0.6757  0.1857 -0.0713
  472SOL    HW1 2610   6.041   1.253   1.169 -2.2629 -0.7996 -2.0954
  472SOL    HW2 2611   6.116   1.235   1.039  1.6090 -0.2237 -0.0954
  473SOL     OW 2612   0.658   1.923   1.217 -0.5625 -0.0557 -0.1816
  473SOL    HW1 2613   0.711   1.885   1.147 -0.0809  0.9634 -0.3878
  473SOL    HW2 2614   0.656   2.017   1.197 -0.4349  0.2491  1.1570
  474SOL     OW 2615   4.869   2.429   3.532  0.9144  0.3291  0.2434
  474SOL    HW1 2616   4.916   2.473   3.603  1.0753 -1.1850  1.1061
  474SOL    HW2 2617   4.784   2.475   3.528  0.9340  0.4805  1.3622
  475SOL     OW 2618   3.068   4.269   0.122  0.6050  0.2517 -0.2946
  475SOL    HW1 2619   3.139   4.230   0.070  0.1060 -1.7937  0.4353
  475SOL    HW2 2620   2.993   4.211   0.105 -0.6277  1.8017 -0.2866
  476SOL     OW 2621   5.810   6.476   3.691  0.1857  0.2074  0.8126
  476SOL    HW1 2622   5.871   6.468   3.618 -1.7179  2.1224 -1.1246
  476SOL    HW2 2623   5.789   6.386   3.715  0.8909 -0.4905 -1.0164
  477SOL     OW 2624   8.074   1.893   2.134  0.1181 -0.2461  0.0209
  477SOL    HW1 2625   8.071   1.804   2.101  1.2477  0.3547 -1.8618
  477SOL    HW2 2626   8.131   1.940   2.073 -1.7034  2.1553  0.0183
  478SOL     OW 2627   0.787   1.519   3.892  0.4559  0.2944 -0.1699
  478SOL    HW1 2628   0.853   1.450   3.901  0.1537 -0.1906 -1.5354
  478SOL    HW2 2629   0.741   1.519   3.976 -0.8128 -2.4844 -0.7541
  479SOL     OW 2630   7.565   7.308   5.064  0.3269  0.0280  0.2948
  479SOL    HW1 2631   7.506   7.251   5.015  1.2201  0.2185 -1.0450
  479SOL    HW2 2632   7.544   7.396   5.034 -0.6836  0.4034  1.9686
  480SOL     OW 2633   4.862   3.058   5.417  0.1698 -0.2697  0.3169
  480SOL    HW1 2634   4.920   2.993   5.378  0.6471  1.2622 -1.7638
  480SOL    HW2 2635   4.833   3.020   5.500  1.9502 -2.2483  0.0957
  481SOL     OW 2636   3.743   3.684   7.321 -0.6442 -0.4736 -0.3223
  481SOL    HW1 2637   3.791   3.766   7.308  0.3181 -0.9154  0.3545
  481SOL    HW2 2638   3.738   3.674   7.416  1.3400 -2.3699 -0.3578
  482SOL     OW 2639   3.662   2.880   7.158 -0.2844 -0.3090 -0.1827
  482SOL    HW1 2640   3.755   2.893   7.137 -0.1546  0.3232  0.7232
  482SOL    HW2 2641   3.662   2.850   7.248 -1.0606  2.4534  0.8374
  483SOL     OW 2642   8.240   1.810   4.487 -0.0424  0.0545 -0.2132
  483SOL    HW1 2643   8.175   1.844   4.548  0.5244  1.3002 -0.2618
  483SOL    HW2 2644   8.321   1.805   4.539  0.1621 -0.0619 -0.5396
  484SOL     OW 2645   2.124   3.703   0.004 -0.6318 -0.0891  0.4883
  484SOL    HW1 2646   2.136   3.642  -0.069 -0.6299  0.9427 -0.3999
  484SOL    HW2 2647   2.213   3.717   0.038  0.0726  2.5212 -1.9468
  485SOL     OW 2648   7.720   7.078   7.881 -0.3801 -0.5544 -0.2490
  485SOL    HW1 2649   7.681   7.075   7.969  0.2369  2.5242  0.2185
  485SOL    HW2 2650   7.814   7.088   7.897 -0.5095  3.6724 -1.0049
  486SOL     OW 2651   5.390   1.555   4.642 -0.2671 -0.5336 -1.1389
  486SOL    HW1 2652   5.342   1.632   4.673 -1.3510  0.0013 -3.8520
  486SOL    HW2 2653   5.442   1.528   4.717 -1.0255  1.9070  0.4019
  487SOL     OW 2654   7.557   0.722   5.054 -0.0394  0.3339  0.4159
  487SOL    HW1 2655   7.536   0.786   5.122  0.1408 -0.6917  1.4669
  487SOL    HW2 2656   7.472   0.703   5.013 -0.4441 -0.2109  1.4407
  488SOL     OW 2657   3.405   3.310   4.366 -0.3356  0.2021  0.9909
  488SOL    HW1 2658   3.318   3.278   4.388 -1.9231  2.5334 -1.3095
  488SOL    HW2 2659   3.389   3.384   4.308  3.2189  0.5747  0.2783
  489SOL     OW 2660   5.339   6.942   2.907 -0.5958 -0.0155 -0.8646
  489SOL    HW1 2661   5.304   6.866   2.955  1.5477  0.0994  1.0691
  489SOL    HW2 2662   5.374   6.999   2.976 -0.3789  1.8051 -2.4165
  490SOL     OW 2663   0.063   4.822   7.919  0.0901  0.0262  0.4499
  490SOL    HW1 2664   0.054   4.736   7.879  1.5831 -0.0797  0.2924
  490SOL    HW2 2665   0.096   4.805   8.007 -0.2785  0.4091  0.6697
  491SOL     OW 2666   2.249   2.685   0.586 -0.2421 -0.2583  0.1559
  491SOL    HW1 2667   2.181   2.750   0.604  0.8721  0.7518  0.8145
  491SOL    HW2 2668   2.236   2.663   0.493 -2.5160 -1.3771  0.6545
  492SOL     OW 2669   3.790   3.507   5.719 -0.3726 -0.8837  0.3761
  492SOL    HW1 2670   3.866   3.495   5.776  1.5937  0.6149 -1.7096
  492SOL    HW2 2671   3.768   3.600   5.729 -0.7240 -0.8741 -0.4184
  493SOL     OW 2672   7.780   5.751   0.578  0.4583 -0.7356  0.2038
  493SOL    HW1 2673   7.773   5.784   0.488  1.0036  0.4728  0.5784
  493SOL    HW2 2674   7.874   5.753   0.597  0.2886 -0.2708  1.0476
  494SOL     OW 2675   4.391   0.976   7.613  0.3900 -0.2044  0.6820
  494SOL    HW1 2676   4.375   0.972   7.518  0.9232 -0.2108  0.5904
  494SOL    HW2 2677   4.304   0.978   7.652  0.1674 -0.3503  0.1947
  495SOL     OW 2678   4.252   1.197   5.304  0.4100 -0.1351 -0.1652
  495SOL    HW1 2679   4.275   1.223   5.215  1.3716 -0.4666 -0.0279
  495SOL    HW2 2680   4.198   1.269   5.337  0.7018  0.3611 -0.7506
  496SOL     OW 2681   1.125   8.431   7.865  0.4684  0.5130  0.3395
  496SOL    HW1 2682   1.158   8.344   7.886  1.1638  0.8584  0.7048
  496SOL    HW2 2683   1.154   8.446   7.775 -1.1503 -0.3245 -0.3642
  497SOL     OW 2684   3.830   4.389   7.281  0.2407 -0.1916  0.4719
  497SOL    HW1 2685   3.768   4.334   7.329  0.5981 -0.8056  0.2398
  497SOL    HW2 2686   3.912   4.379   7.329  0.5381 -0.6051 -0.1138
  498SOL     OW 2687   0.643   5.511   7.274  0.1235 -0.3219  0.0350
  498SOL    HW1 2688   0.686   5.524   7.190 -1.1409 -0.4545 -0.6530
  498SOL    HW2 2689   0.644   5.416   7.288  0.5849 -0.2800  0.3186
  499SOL     OW 2690   7.673   0.971   0.161 -0.2684  0.1633  0.2981
  499SOL    HW1 2691   7.590   0.950   0.118  0.8879 -0.7148 -1.6123
  499SOL    HW2 2692   7.738   0.966   0.092  1.3268  1.4677  1.6222
  500SOL     OW 2693   8.327   3.615   7.346 -0.4852 -0.2699 -0.8728
  500SOL    HW1 2694   8.284   3.633   7.430  0.6577 -2.5097  0.2803
  500SOL    HW2 2695   8.354   3.523   7.352  0.0914 -0.3504 -3.5170
  501SOL     OW 2696   1.573   6.669   4.680 -0.0137 -0.4065  0.2866
  501SOL    HW1 2697   1.538   6.723   4.609 -3.1802 -1.8372  0.5673
  501SOL    HW2 2698   1.605   6.590   4.637  2.2716  0.5593  0.1114
  502SOL     OW 2699   7.730   5.904   7.596 -0.2060 -0.0155 -0.0714
  502SOL    HW1 2700   7.782   5.824   7.605 -1.6008 -0.9371  0.0661
  502SOL    HW2 2701   7.794   5.975   7.606  0.7756 -1.0774  1.7285
  503SOL     OW 2702   7.441   4.816   2.110  0.2951 -0.4457 -0.4658
  503SOL    HW1 2703   7.482   4.774   2.186 -0.5129 -1.3156 -0.4942
  503SOL    HW2 2704   7.471   4.907   2.114 -0.5042 -0.2044  1.4905
  504SOL     OW 2705   6.164   4.959   6.911  0.1537  0.4974  0.1205
  504SOL    HW1 2706   6.176   4.957   7.006  3.5262  0.5610 -0.1627
  504SOL    HW2 2707   6.092   5.020   6.896  0.4659  1.5725  2.5727
  505SOL     OW 2708   0.149   1.571   0.481  0.4745 -0.4009 -0.1972
  505SOL    HW1 2709   0.195   1.638   0.532  1.6539 -2.6004  1.8913
  505SOL    HW2 2710   0.134   1.500   0.544  1.9891 -3.3262 -2.8356
  506SOL     OW 2711   4.341   8.425   2.283  0.0700 -0.0421  0.2831
  506SOL    HW1 2712   4.340   8.510   2.238 -1.4322 -0.3499 -0.3001
  506SOL    HW2 2713   4.264   8.428   2.341  0.1426 -0.9245  0.4339
  507SOL     OW 2714   5.984   4.828   2.398  0.3666 -0.1671  0.3563
  507SOL    HW1 2715   5.981   4.879   2.317  1.4523  0.2811  0.5879
  507SOL    HW2 2716   5.982   4.737   2.369  0.0312 -0.0120 -0.1304
  508SOL     OW 2717   4.264   1.942   5.064  0.1547 -0.2367  0.1788
  508SOL    HW1 2718   4.328   1.922   5.132 -1.4228 -0.9418  1.5230
  508SOL    HW2 2719   4.254   2.037   5.069  0.9768 -0.1301  0.0335
  509SOL     OW 2720   4.521   6.422   2.595  0.6885  0.0330 -0.0355
  509SOL    HW1 2721   4.582   6.480   2.550  0.0763  0.8950  0.2237
  509SOL    HW2 2722   4.435   6.448   2.563  0.1404  1.2885  2.2484
  510SOL     OW 2723   5.613   0.331   2.277  0.4643  0.4235 -0.3532
  510SOL    HW1 2724   5.606   0.243   2.313 -0.1694  0.7858  0.4352
  510SOL    HW2 2725   5.613   0.318   2.182 -0.9941 -0.3527 -0.2751
  511SOL     OW 2726   6.805   4.141   8.107  0.3562 -0.0810  0.1286
  511SOL    HW1 2727   6.782   4.080   8.177 -0.7025 -1.5902 -1.4791
  511SOL    HW2 2728   6.844   4.087   8.039 -0.8511  0.9780 -1.4588
  512SOL     OW 2729   3.996   1.836   7.030  0.2989  0.2495  0.2428
  512SOL    HW1 2730   3.915   1.801   7.067  0.4262 -0.3304 -0.0279
  512SOL    HW2 2731   4.066   1.790   7.077  0.5674  2.5659  2.3541
  513SOL     OW 2732   7.055   4.369   6.498  0.0848  0.2565 -0.2124
  513SOL    HW1 2733   7.041   4.461   6.475 -0.6160  0.1346 -0.2876
  513SOL    HW2 2734   7.034   4.321   6.418 -0.3775 -0.0273  0.0760
  514SOL     OW 2735   1.059   4.211   5.813 -0.2168 -0.0338  0.3186
  514SOL    HW1 2736   0.992   4.176   5.754  0.7492 -1.5639  0.0692
  514SOL    HW2 2737   1.016   4.213   5.899 -1.6393  2.2492 -0.3859
  515SOL     OW 2738   7.797   5.480   4.003 -0.1130 -0.6603  0.2759
  515SOL    HW1 2739   7.735   5.410   3.983  0.5806 -1.2907  0.2583
  515SOL    HW2 2740   7.745   5.547   4.046 -1.1270 -0.4311 -1.2389
  516SOL     OW 2741   4.311   1.744   6.579  0.0874  0.4186  0.0287
  516SOL    HW1 2742   4.361   1.821   6.609 -1.0514  1.2104 -0.0436
  516SOL    HW2 2743   4.268   1.711   6.657  0.8757 -0.4007  0.1324
  517SOL     OW 2744   6.851   4.826   3.561  0.1074 -0.1175  0.0458
  517SOL    HW1 2745   6.807   4.880   3.495 -1.4213 -0.8532  0.4112
  517SOL    HW2 2746   6.787   4.819   3.633  0.4698 -1.9105  0.2510
  518SOL     OW 2747   1.016   1.093   6.202 -0.7533  0.7025  0.2719
  518SOL    HW1 2748   1.001   1.096   6.296 -1.6423 -2.0716  0.2983
  518SOL    HW2 2749   0.929   1.103   6.163 -0.6102  0.2321 -0.1854
  519SOL     OW 2750   8.100   3.832   2.512 -0.3309  0.3849 -0.3215
  519SOL    HW1 2751   8.006   3.834   2.529 -0.3417  0.4620 -0.3943
  519SOL    HW2 2752   8.123   3.922   2.491 -0.2388  0.3679 -0.2939
  520SOL     OW 2753   0.245   1.565   2.500 -0.0187 -0.2846  0.0990
  520SOL    HW1 2754   0.319   1.507   2.480  0.1313  0.0586 -0.3659
  520SOL    HW2 2755   0.207   1.584   2.414 -0.4854 -0.2472  0.3147
  521SOL     OW 2756   3.118   7.448   5.272  0.0125  0.5343 -0.0013
  521SOL    HW1 2757   3.177   7.389   5.319 -2.1391  0.2826  2.6364
  521SOL    HW2 2758   3.147   7.536   5.297  0.0776  0.4522  0.2143
  522SOL     OW 2759   8.027   2.851   7.925 -0.2880 -0.2413 -0.2193
  522SOL    HW1 2760   8.055   2.933   7.966  0.1514 -0.5844  0.1790
  522SOL    HW2 2761   7.936   2.841   7.950 -0.0135 -0.4679  0.7260
  523SOL     OW 2762   2.108   8.179   7.276  0.1448 -0.0370  0.3471
  523SOL    HW1 2763   2.088   8.101   7.225 -2.6073  0.1839  0.9616
  523SOL    HW2 2764   2.175   8.224   7.224 -0.0589 -1.5171 -1.3032
  524SOL     OW 2765   1.483   7.664   0.347  0.0033 -0.5648 -1.0135
  524SOL    HW1 2766   1.479   7.759   0.338  0.5147 -0.6156 -1.9791
  524SOL    HW2 2767   1.536   7.635   0.272  0.8392 -1.5139 -0.0912
  525SOL     OW 2768   2.087   3.402   0.519 -0.1468 -0.0747  0.5595
  525SOL    HW1 2769   2.004   3.361   0.495  0.1146 -0.6006  0.5362
  525SOL    HW2 2770   2.127   3.428   0.436  1.5733 -3.4675  0.1503
  526SOL     OW 2771   8.274   3.986   7.010 -0.0624  0.5042  0.1060
  526SOL    HW1 2772   8.231   4.053   6.956 -0.7236 -0.3588 -0.4587
  526SOL    HW2 2773   8.244   4.004   7.099 -0.6210  0.6675 -0.1122
  527SOL     OW 2774   7.816   2.905   2.516 -0.4430  0.9429 -0.0693
  527SOL    HW1 2775   7.850   2.995   2.520 -0.7139  1.0037  1.8766
  527SOL    HW2 2776   7.874   2.855   2.574  1.3575 -0.7883 -3.1058
  528SOL     OW 2777   2.731   1.897   6.904  0.6448 -0.2009 -0.4195
  528SOL    HW1 2778   2.753   1.900   6.811  1.0696  0.9260 -0.3075
  528SOL    HW2 2779   2.638   1.918   6.907  0.8349  0.7102 -0.5448
  529SOL     OW 2780   0.558   7.848   6.189  0.1754  0.2973  0.0677
  529SOL    HW1 2781   0.649   7.841   6.219  0.4198 -1.3709 -0.8921
  529SOL    HW2 2782   0.548   7.939   6.162  1.4748  0.5758  0.4664
  530SOL     OW 2783   3.627   6.277   5.046 -0.9504  0.2600 -0.3216
  530SOL    HW1 2784   3.620   6.365   5.009  2.3000  0.4467 -0.8170
  530SOL    HW2 2785   3.561   6.226   4.999 -0.3266  1.6146 -2.8477
  531SOL     OW 2786   1.518   4.693   7.899 -0.2757  0.0225 -0.4516
  531SOL    HW1 2787   1.488   4.781   7.921  1.0057  0.4857 -0.4825
  531SOL    HW2 2788   1.606   4.687   7.937 -0.4598 -1.3562 -0.1801
  532SOL     OW 2789   2.973   8.247   3.228 -0.1136 -0.0210  0.6126
  532SOL    HW1 2790   3.042   8.280   3.170 -0.4917 -1.4236 -0.7219
  532SOL    HW2 2791   2.897   8.301   3.208 -0.3748 -0.8001 -0.6060
  533SOL     OW 2792   3.312   5.945   4.503  0.0681  0.1553 -0.1121
  533SOL    HW1 2793   3.368   5.868   4.489 -0.8446 -1.0100  2.1203
  533SOL    HW2 2794   3.224   5.915   4.484 -0.0822  1.3853 -1.5567
  534SOL     OW 2795   5.434   3.527   0.978  0.0313 -0.1997 -0.0633
  534SOL    HW1 2796   5.391   3.595   1.030 -1.3285 -2.2653  1.6532
  534SOL    HW2 2797   5.377   3.514   0.903  0.2219  0.3935 -0.3232
  535SOL     OW 2798   7.876   4.521   3.834  0.2285 -0.0798  0.2751
  535SOL    HW1 2799   7.860   4.587   3.901 -0.3597  2.1563 -1.8980
  535SOL    HW2 2800   7.878   4.438   3.881  0.0118  1.3742  3.0245
  536SOL     OW 2801   4.438   0.354   0.366  0.0938 -0.2892  0.4149
  536SOL    HW1 2802   4.518   0.304   0.382  1.5520  1.8724  0.1333
  536SOL    HW2 2803   4.380   0.330   0.439  0.6875 -2.3839  0.2589
  537SOL     OW 2804   4.579   1.647   7.319  0.8813  0.2505 -0.0651
  537SOL    HW1 2805   4.583   1.731   7.365 -0.0103  0.5718 -0.5599
  537SOL    HW2 2806   4.525   1.591   7.375 -0.3062  0.6796 -0.7603
  538SOL     OW 2807   8.264   2.364   7.004 -0.0373 -0.1748  0.2068
  538SOL    HW1 2808   8.216   2.373   6.921 -0.2808  0.1001  0.3759
  538SOL    HW2 2809   8.292   2.273   7.006 -1.7680 -0.7373  0.7597
  539SOL     OW 2810   3.154   6.103   0.328  0.0349 -0.0530 -0.2129
  539SOL    HW1 2811   3.199   6.041   0.271  1.4176 -0.2685  1.0600
  539SOL    HW2 2812   3.163   6.188   0.284 -0.5175 -0.4824 -1.1910
  540SOL     OW 2813   0.811   3.476   3.869  0.2015 -0.1505  0.2067
  540SOL    HW1 2814   0.759   3.470   3.949  0.0456 -1.2459  0.0384
  540SOL    HW2 2815   0.776   3.407   3.812  1.0676 -0.1340 -0.3627
  541SOL     OW 2816   4.199   3.688   0.186  0.0096 -0.2773  0.5839
  541SOL    HW1 2817   4.272   3.682   0.248 -0.3576  2.3407  1.3842
  541SOL    HW2 2818   4.138   3.620   0.215  0.3618  0.1223  2.4193
  542SOL     OW 2819   1.617   5.675   3.342 -0.1367 -0.2548 -0.3669
  542SOL    HW1 2820   1.611   5.757   3.390  0.9249 -0.8768  0.8955
  542SOL    HW2 2821   1.709   5.667   3.318 -0.7546  0.5048 -3.4854
  543SOL     OW 2822   0.871   3.028   4.838 -0.0194  0.0716 -0.7465
  543SOL    HW1 2823   0.953   3.072   4.814 -0.0154  0.6132  0.2045
  543SOL    HW2 2824   0.811   3.100   4.860  0.3885 -0.3382  2.1744
  544SOL     OW 2825   3.052   2.332   8.093  0.4837  0.4844  0.0456
  544SOL    HW1 2826   2.964   2.294   8.098  0.5375  0.4974  1.4689
  544SOL    HW2 2827   3.058   2.388   8.171  1.5113  1.0193 -0.3989
  545SOL     OW 2828   5.575   7.267   0.611  0.1364  0.3561 -0.1063
  545SOL    HW1 2829   5.662   7.267   0.651 -0.0497 -0.2094  0.3043
  545SOL    HW2 2830   5.575   7.190   0.554  0.5592  1.3926 -1.5751
  546SOL     OW 2831   5.796   8.586   4.095 -0.3413 -0.0906  0.3435
  546SOL    HW1 2832   5.744   8.530   4.152 -0.4590 -1.0710 -0.6937
  546SOL    HW2 2833   5.868   8.531   4.066 -0.5477  0.2220 -0.8281
  547SOL     OW 2834   8.156   5.404   2.700 -0.8544 -0.0726  0.5938
  547SOL    HW1 2835   8.195   5.487   2.724  1.8520 -0.4150 -1.9834
  547SOL    HW2 2836   8.086   5.427   2.639 -0.1864  0.3501 -0.0273
  548SOL     OW 2837   7.855   2.458   6.139 -0.4247  0.4807  0.1634
  548SOL    HW1 2838   7.886   2.423   6.056 -0.2501  2.3266 -0.6051
  548SOL    HW2 2839   7.934   2.475   6.190 -0.4427  0.6318  0.1433
  549SOL     OW 2840   1.113   0.811   5.535  0.2610  0.2183  0.0008
  549SOL    HW1 2841   1.055   0.867   5.588  1.4484 -0.6899  2.3868
  549SOL    HW2 2842   1.196   0.858   5.533  0.6152 -0.3976  0.0968
  550SOL     OW 2843   2.702   5.505   3.096  0.0651  0.1873  0.1093
  550SOL    HW1 2844   2.660   5.421   3.077  0.6442  0.0208 -0.4551
  550SOL    HW2 2845   2.754   5.525   3.018 -0.1372  1.1210  0.1938
  551SOL     OW 2846   5.519   0.948   5.984 -0.0133 -0.1951  0.5576
  551SOL    HW1 2847   5.530   1.043   5.982  1.3740 -0.3465 -0.6500
  551SOL    HW2 2848   5.430   0.935   6.015 -0.4412  1.5172  0.1427
  552SOL     OW 2849   1.727   3.524   4.724  0.2545 -0.5928 -0.0488
  552SOL    HW1 2850   1.713   3.598   4.665 -0.4899 -1.1686 -0.6167
  552SOL    HW2 2851   1.818   3.533   4.753 -0.0984  1.0898  0.6639
  553SOL     OW 2852   5.628   8.545   1.762 -0.0238 -0.2573 -0.5247
  553SOL    HW1 2853   5.685   8.485   1.810 -0.2333  1.0261  1.4561
  553SOL    HW2 2854   5.685   8.584   1.695  1.1677  0.1813  0.6949
  554SOL     OW 2855   3.745   4.721   3.363  0.2390  0.7361 -0.7560
  554SOL    HW1 2856   3.674   4.657   3.377  2.1453 -1.2695  0.4165
  554SOL    HW2 2857   3.727   4.791   3.426  0.3841 -0.7984  1.1111
  555SOL     OW 2858   2.554   1.482   4.317 -0.0185  0.1044  0.2173
  555SOL    HW1 2859   2.485   1.517   4.260  0.3825  0.5832  0.0216
  555SOL    HW2 2860   2.525   1.504   4.406 -1.3810 -1.9298  0.3276
  556SOL     OW 2861   7.871   7.505   6.969 -0.2844  0.5249 -0.4464
  556SOL    HW1 2862   7.865   7.410   6.981 -1.4552  0.7464  1.0614
  556SOL    HW2 2863   7.785   7.537   6.996  0.9952  2.2697  1.8037
  557SOL     OW 2864   6.985   6.142   0.700 -0.4304  0.3376  0.0895
  557SOL    HW1 2865   7.048   6.167   0.767 -1.8867  2.4747  0.7412
  557SOL    HW2 2866   6.969   6.222   0.650 -0.2823 -0.9202 -2.0787
  558SOL     OW 2867   1.353   8.571   2.628 -0.4723  0.1169 -0.2731
  558SOL    HW1 2868   1.367   8.581   2.722 -1.7554  0.1540 -0.0747
  558SOL    HW2 2869   1.279   8.629   2.608 -0.3701 -0.0709 -1.2647
  559SOL     OW 2870   1.058   5.276   3.119 -0.0153  0.3439 -0.3428
  559SOL    HW1 2871   1.101   5.349   3.163  1.4009  1.1209 -2.7647
  559SOL    HW2 2872   0.978   5.313   3.082  0.5507  0.6491 -1.3114
  560SOL     OW 2873   6.824   2.369   3.329  0.4857  0.5394  0.2954
  560SOL    HW1 2874   6.729   2.383   3.334  0.2081 -0.7481 -0.7704
  560SOL    HW2 2875   6.852   2.362   3.420 -0.5183  0.4876  0.6113
  561SOL     OW 2876   1.292   8.139   1.742  0.4075 -0.0945 -0.4355
  561SOL    HW1 2877   1.340   8.099   1.669 -0.6735  1.8532 -2.3382
  561SOL    HW2 2878   1.218   8.183   1.700 -0.3518  0.9910  1.8888
  562SOL     OW 2879   3.629   8.030   1.935 -0.0038 -0.1421 -0.1481
  562SOL    HW1 2880   3.582   8.072   1.863 -0.4504 -1.2100 -0.5037
  562SOL    HW2 2881   3.563   8.016   2.002  0.5264  1.3602  0.7346
  563SOL     OW 2882   7.878   3.194   6.071 -0.1831  0.4626 -0.2222
  563SOL    HW1 2883   7.794   3.182   6.026 -0.5781 -0.6454  0.7560
  563SOL    HW2 2884   7.855   3.207   6.162  0.7349 -0.8684  0.2354
  564SOL     OW 2885   5.197   3.382   5.965 -0.1432  0.4185 -0.1018
  564SOL    HW1 2886   5.144   3.332   6.027  0.2034 -1.8776 -1.5201
  564SOL    HW2 2887   5.257   3.433   6.019  0.1261 -1.4737  1.4944
  565SOL     OW 2888   7.739   4.826   4.467 -0.1405 -0.6552 -0.3555
  565SOL    HW1 2889   7.802   4.897   4.450  0.3406 -0.5074  1.7905
  565SOL    HW2 2890   7.766   4.756   4.408  1.3358 -0.1693 -0.2960
  566SOL     OW 2891   7.135   7.661   1.685 -0.2376  0.2308 -0.4930
  566SOL    HW1 2892   7.075   7.641   1.756 -0.4817  2.0447 -0.1497
  566SOL    HW2 2893   7.219   7.676   1.728 -0.3849  1.3308 -0.5775
  567SOL     OW 2894   3.626   2.777   5.861 -0.0271  0.1777 -0.2369
  567SOL    HW1 2895   3.649   2.858   5.906  1.2670 -0.0354 -0.4623
  567SOL    HW2 2896   3.551   2.800   5.806 -0.6874  0.8083  0.9006
  568SOL     OW 2897   5.214   7.542   5.298  0.4148  0.0399  0.0049
  568SOL    HW1 2898   5.246   7.604   5.364  0.0253  0.2511  0.0019
  568SOL    HW2 2899   5.119   7.550   5.303  0.3845  0.1198 -0.6472
  569SOL     OW 2900   6.279   0.591   0.174  0.6517  0.0292 -0.5359
  569SOL    HW1 2901   6.276   0.686   0.179 -2.1135  0.0532 -0.9778
  569SOL    HW2 2902   6.242   0.570   0.088 -0.0666 -1.4385  0.0873
  570SOL     OW 2903   1.476   6.941   5.234 -0.1009  0.0869 -0.6212
  570SOL    HW1 2904   1.555   6.887   5.227  0.0852  0.2287  0.2203
  570SOL    HW2 2905   1.466   6.980   5.147  1.5878  1.1987 -0.3758
  571SOL     OW 2906   3.912   4.380   2.362 -0.4546 -0.2200  0.8126
  571SOL    HW1 2907   3.860   4.404   2.438 -2.4990  0.8767 -0.8444
  571SOL    HW2 2908   3.978   4.449   2.355 -0.2347 -0.3511  1.6097
  572SOL     OW 2909   3.038   5.069   2.552 -0.5191  0.3948 -0.5380
  572SOL    HW1 2910   3.063   5.082   2.643  0.5673  1.3476 -0.9476
  572SOL    HW2 2911   3.117   5.033   2.510 -0.9898  0.0073 -1.1171
  573SOL     OW 2912   2.166   2.531   5.821  0.3201  0.3376 -0.2279
  573SOL    HW1 2913   2.254   2.507   5.795 -0.0752 -0.9813 -0.4009
  573SOL    HW2 2914   2.159   2.624   5.800  1.8233  0.5862  0.2587
  574SOL     OW 2915   8.206   7.641   3.344 -0.4988 -0.4300  0.2779
  574SOL    HW1 2916   8.282   7.588   3.369 -0.3422  0.1719  1.1016
  574SOL    HW2 2917   8.198   7.706   3.413 -0.2508  1.0953 -1.0806
  575SOL     OW 2918   0.485   5.861   3.981  0.5024 -0.1119 -0.1499
  575SOL    HW1 2919   0.509   5.769   3.980  1.1101  0.0491 -1.5665
  575SOL    HW2 2920   0.539   5.899   4.050  0.9094 -0.6312 -0.1764
  576SOL     OW 2921   2.610   0.913   6.870 -0.4796 -0.4747 -0.7463
  576SOL    HW1 2922   2.557   0.905   6.950 -1.4474 -0.2668 -1.3586
  576SOL    HW2 2923   2.550   0.947   6.804  0.8167  1.3896 -1.0432
  577SOL     OW 2924   3.085   0.028   3.308 -0.4026 -0.3891  0.1492
  577SOL    HW1 2925   3.141   0.067   3.241  0.2416 -0.2859  0.7283
  577SOL    HW2 2926   3.139  -0.041   3.347 -0.6309 -0.2108  0.7993
  578SOL     OW 2927   6.359   8.460   1.952  0.5911  0.1360 -0.3952
  578SOL    HW1 2928   6.374   8.527   1.885 -0.2057  1.8413  1.0461
  578SOL    HW2 2929   6.298   8.501   2.013  0.4898 -1.7417  0.8330
  579SOL     OW 2930   4.233   3.510   2.236 -0.3359  0.6915 -0.3479
  579SOL    HW1 2931   4.252   3.577   2.303 -0.1745  1.3693 -1.0528
  579SOL    HW2 2932   4.140   3.492   2.245  0.2170 -1.6357  2.2210
  580SOL     OW 2933   2.751   4.270   6.595  0.3546  0.2287 -0.6312
  580SOL    HW1 2934   2.819   4.301   6.654 -0.3585  1.5285 -0.4509
  580SOL    HW2 2935   2.799   4.241   6.517  1.2063 -0.2938  0.0644
  581SOL     OW 2936   0.354   1.598   2.042 -0.1509  0.5062  0.0728
  581SOL    HW1 2937   0.348   1.685   2.002 -0.7596 -0.4018 -1.8919
  581SOL    HW2 2938   0.315   1.609   2.129  0.3866  2.3286  0.1235
  582SOL     OW 2939   4.481   0.341   5.282  0.0764  0.5239 -0.1326
  582SOL    HW1 2940   4.493   0.435   5.271 -0.2516  0.5445 -0.3688
  582SOL    HW2 2941   4.393   0.324   5.248 -0.5707  0.4000  1.5157
  583SOL     OW 2942   4.186   7.330   7.509  0.4522  0.2241  0.1746
  583SOL    HW1 2943   4.225   7.304   7.593 -0.4427 -1.0662  0.2195
  583SOL    HW2 2944   4.239   7.284   7.443  0.4082  0.2580  0.1151
  584SOL     OW 2945   8.485   2.989   0.225  0.0565  0.1701 -0.5068
  584SOL    HW1 2946   8.519   3.063   0.175  2.4230  0.6590  1.5958
  584SOL    HW2 2947   8.531   2.995   0.309  0.4765 -3.7920 -0.2842
  585SOL     OW 2948   0.952   6.667   0.660 -0.2474 -0.2149 -0.0504
  585SOL    HW1 2949   1.044   6.692   0.660 -0.5211  0.9234 -1.5045
  585SOL    HW2 2950   0.923   6.686   0.750  0.6011  0.7339  0.0419
  586SOL     OW 2951   4.546   4.016   8.320  0.5599 -0.1821 -0.2894
  586SOL    HW1 2952   4.555   3.922   8.330  2.8109 -0.1344 -1.2858
  586SOL    HW2 2953   4.469   4.027   8.264 -0.1402 -1.3656  0.4023
  587SOL     OW 2954   0.149   1.332   4.259 -0.2679  0.0209 -0.0334
  587SOL    HW1 2955   0.096   1.290   4.191 -1.0339  0.2030  0.4430
  587SOL    HW2 2956   0.124   1.287   4.340 -0.7692  1.0722  0.4162
  588SOL     OW 2957   8.155   8.587   2.185 -0.0173 -0.1296 -0.0627
  588SOL    HW1 2958   8.118   8.641   2.254 -1.0391 -1.3260  0.3669
  588SOL    HW2 2959   8.079   8.543   2.145  0.5921  0.1424 -1.6064
  589SOL     OW 2960   7.871   3.268   0.539 -0.2993 -0.9748 -0.2698
  589SOL    HW1 2961   7.839   3.283   0.628 -0.3177 -1.0584 -0.2623
  589SOL    HW2 2962   7.879   3.356   0.501  0.1139 -0.9087 -0.0403
  590SOL     OW 2963   8.214   2.575   8.296  0.3094  0.0132 -0.6144
  590SOL    HW1 2964   8.296   2.582   8.345 -0.7482 -1.9644  1.6931
  590SOL    HW2 2965   8.235   2.515   8.224  0.8037 -0.9670  0.3032
  591SOL     OW 2966   4.587   1.864   2.131 -0.3722 -0.3618  0.3272
  591SOL    HW1 2967   4.550   1.829   2.213 -1.3209 -0.5085 -0.1483
  591SOL    HW2 2968   4.519   1.923   2.098  0.0821 -0.1648 -0.2619
  592SOL     OW 2969   2.756   7.745   7.339 -0.6077 -0.0283 -0.2609
  592SOL    HW1 2970   2.801   7.830   7.344 -0.2088 -0.2247 -0.5614
  592SOL    HW2 2971   2.670   7.766   7.302 -0.4179  0.2086 -0.5708
  593SOL     OW 2972   0.414   7.412   8.052 -0.4248 -0.5757  0.4200
  593SOL    HW1 2973   0.374   7.456   8.127 -0.0008 -1.3493  1.1099
  593SOL    HW2 2974   0.395   7.319   8.066  0.0601 -0.7734 -0.1928
  594SOL     OW 2975   2.906   4.344   6.807 -0.0486 -0.0690  0.8015
  594SOL    HW1 2976   2.992   4.334   6.849 -1.0995 -0.1085  3.0763
  594SOL    HW2 2977   2.844   4.352   6.880 -1.8528  1.2661 -0.7757
  595SOL     OW 2978   7.464   1.010   3.371  0.1304  0.0461  0.3474
  595SOL    HW1 2979   7.433   1.101   3.374  0.6294  0.2765 -0.6942
  595SOL    HW2 2980   7.553   1.014   3.406 -0.7028 -0.5000  2.6996
  596SOL     OW 2981   1.363   7.100   4.098  0.6716 -0.0297  0.0303
  596SOL    HW1 2982   1.419   7.030   4.063  0.5663 -0.7132  1.1791
  596SOL    HW2 2983   1.419   7.177   4.097  1.2623 -0.4491  0.0825
  597SOL     OW 2984   0.167   1.583   0.201 -0.1631 -1.1899 -0.1110
  597SOL    HW1 2985   0.076   1.590   0.173  0.8343  0.9320 -3.5198
  597SOL    HW2 2986   0.163   1.583   0.296 -3.6732 -0.2798 -0.1049
  598SOL     OW 2987   2.747   1.971   0.580 -0.3600  0.2082  0.1012
  598SOL    HW1 2988   2.801   1.892   0.573 -2.3811 -1.2535  0.2088
  598SOL    HW2 2989   2.799   2.031   0.633  1.2379 -1.0217  0.0057
  599SOL     OW 2990   4.571   0.805   0.219 -0.3311  0.4265 -0.1694
  599SOL    HW1 2991   4.531   0.842   0.298 -1.9060  1.4289 -1.3796
  599SOL    HW2 2992   4.620   0.878   0.181  1.0280 -0.2496  0.2301
  600SOL     OW 2993   0.639   0.236   1.280 -0.1174 -0.2704  0.2948
  600SOL    HW1 2994   0.730   0.209   1.269 -1.1074 -3.4466 -1.1537
  600SOL    HW2 2995   0.628   0.309   1.219  0.6511 -2.1669 -2.2875
  601SOL     OW 2996   4.642   7.426   7.742  0.0328 -0.1930 -0.4509
  601SOL    HW1 2997   4.616   7.348   7.693 -0.2200  0.1041 -0.8008
  601SOL    HW2 2998   4.732   7.409   7.769  1.2603  0.7661 -3.4512
  602SOL     OW 2999   2.533   5.377   5.787 -0.1471  0.2307  0.4042
  602SOL    HW1 3000   2.483   5.400   5.866 -0.8355  0.1084  0.0096
  602SOL    HW2 3001   2.541   5.282   5.792 -1.9272 -0.0214 -0.6671
  603SOL     OW 3002   7.923   1.656   7.854  0.6544  0.0530  0.3889
  603SOL    HW1 3003   7.995   1.665   7.791  1.0506  0.5287  0.8895
  603SOL    HW2 3004   7.937   1.570   7.894 -0.5648 -1.0081 -1.3073
  604SOL     OW 3005   6.356   6.203   4.332  0.8791  0.0212 -0.4267
  604SOL    HW1 3006   6.307   6.129   4.370 -0.0435  0.9204  0.1993
  604SOL    HW2 3007   6.350   6.189   4.237  0.7005 -0.6959 -0.3186
  605SOL     OW 3008   4.433   5.461   1.048 -0.0137  0.0485  0.4733
  605SOL    HW1 3009   4.340   5.440   1.042 -0.5006  2.1375 -0.1045
  605SOL    HW2 3010   4.462   5.471   0.958  1.1882 -1.9831  0.5653
  606SOL     OW 3011   0.748   8.477   7.642  0.6074 -0.0460  0.0316
  606SOL    HW1 3012   0.782   8.426   7.716  0.0321 -1.5980 -0.7429
  606SOL    HW2 3013   0.658   8.447   7.631  0.6036  0.3354 -1.1439
  607SOL     OW 3014   6.540   7.670   2.504  0.6862  0.4266 -0.0228
  607SOL    HW1 3015   6.505   7.590   2.465  1.8939  0.7133 -1.7783
  607SOL    HW2 3016   6.559   7.646   2.595  1.8549 -1.5774 -0.7304
  608SOL     OW 3017   7.834   4.626   5.951  0.0471 -0.4420  0.1323
  608SOL    HW1 3018   7.877   4.710   5.931 -2.4844  0.7310 -0.7667
  608SOL    HW2 3019   7.799   4.596   5.867 -0.6165 -1.5005  0.7665
  609SOL     OW 3020   4.535   0.850   4.789 -0.1902 -0.0155 -0.7042
  609SOL    HW1 3021   4.585   0.860   4.708  1.8560  4.2593  0.7669
  609SOL    HW2 3022   4.454   0.899   4.773 -0.1577  0.1198 -0.4640
  610SOL     OW 3023   2.934   1.560   2.451  0.0535 -0.2393 -0.3273
  610SOL    HW1 3024   2.960   1.652   2.464  2.1286 -0.9062  0.6930
  610SOL    HW2 3025   2.951   1.544   2.358 -0.9481  0.5506 -0.6732
  611SOL     OW 3026   5.523   5.695   5.001 -0.4206 -0.6012  0.4815
  611SOL    HW1 3027   5.586   5.627   5.024 -1.3127 -1.7332 -0.2759
  611SOL    HW2 3028   5.445   5.672   5.050 -0.0931  1.1360  1.8829
  612SOL     OW 3029   4.299   4.221   0.016  0.0443  0.3234  0.2165
  612SOL    HW1 3030   4.288   4.128  -0.003 -0.0259  0.4459 -0.3710
  612SOL    HW2 3031   4.347   4.255  -0.059 -0.7189  0.9398 -0.0049
  613SOL     OW 3032   5.169   6.226   5.682  0.0049 -0.0053 -0.0167
  613SOL    HW1 3033   5.088   6.183   5.652 -0.5800  1.5126 -0.7184
  613SOL    HW2 3034   5.155   6.319   5.663  1.6070  0.3889  0.5927
  614SOL     OW 3035   7.852   0.754   6.859  0.1406  0.3016 -0.4796
  614SOL    HW1 3036   7.831   0.661   6.866  1.6303  0.0066  0.7365
  614SOL    HW2 3037   7.798   0.796   6.926  0.8919  0.0192  0.3222
  615SOL     OW 3038   3.360   0.438   0.250 -0.6473 -0.0369  0.7609
  615SOL    HW1 3039   3.315   0.360   0.217 -0.2221  0.1077 -0.1660
  615SOL    HW2 3040   3.449   0.430   0.218 -0.4051  0.4711  1.2874
  616SOL     OW 3041   5.984   5.001   1.498 -0.2296  0.2701  0.4214
  616SOL    HW1 3042   5.949   4.974   1.583  1.6233 -1.5354  0.6969
  616SOL    HW2 3043   6.069   4.958   1.493 -0.3023  0.2929 -2.3865
  617SOL     OW 3044   1.462   4.400   4.680 -0.2163 -0.3339  0.0462
  617SOL    HW1 3045   1.519   4.445   4.742 -0.1961  0.2448 -0.3849
  617SOL    HW2 3046   1.519   4.381   4.605 -0.3390 -0.6768  0.0383
  618SOL     OW 3047   0.699   0.889   8.175  0.0215 -0.7382  0.2402
  618SOL    HW1 3048   0.716   0.975   8.136 -0.6154 -1.4671 -1.7511
  618SOL    HW2 3049   0.634   0.906   8.243  0.7448  0.5008  0.6560
  619SOL     OW 3050   0.167   7.581   6.509  0.0589  0.2602  0.3568
  619SOL    HW1 3051   0.093   7.525   6.488 -0.0338  0.7201 -0.5965
  619SOL    HW2 3052   0.209   7.598   6.425  1.0271  0.3109  0.8398
  620SOL     OW 3053   3.210   2.115   2.254 -0.8928  0.2668 -0.0870
  620SOL    HW1 3054   3.212   2.147   2.344  1.2814  0.1559 -0.0390
  620SOL    HW2 3055   3.212   2.019   2.263 -0.0011  0.2621 -0.2290
  621SOL     OW 3056   5.347   7.457   1.969  0.3542 -0.0362 -0.3290
  621SOL    HW1 3057   5.389   7.536   1.936  0.8077  0.1635  0.6877
  621SOL    HW2 3058   5.292   7.488   2.041 -0.3719 -0.4957 -0.6805
  622SOL     OW 3059   3.405   7.747   8.150 -0.6680 -0.1428 -0.3967
  622SOL    HW1 3060   3.441   7.733   8.063  0.9039 -0.9277  0.3310
  622SOL    HW2 3061   3.405   7.660   8.190  2.0449  0.6048  1.5771
  623SOL     OW 3062   2.616   7.471   6.155  0.0487  0.3176 -0.4045
  623SOL    HW1 3063   2.558   7.399   6.129  0.7763 -0.3355 -0.2698
  623SOL    HW2 3064   2.685   7.428   6.207  0.2727  1.1745  0.0178
  624SOL     OW 3065   4.187   8.134   2.864  0.2653  0.0627 -0.5630
  624SOL    HW1 3066   4.117   8.069   2.866  0.9686 -0.6914 -0.1956
  624SOL    HW2 3067   4.206   8.147   2.771 -0.3323  0.2481 -0.6639
  625SOL     OW 3068   7.586   5.992   5.453 -0.6589  0.2716  0.3745
  625SOL    HW1 3069   7.522   5.987   5.382 -0.9128  1.0315  0.5405
  625SOL    HW2 3070   7.598   6.086   5.468  1.3780  0.1706 -0.4284
  626SOL     OW 3071   0.943   0.795   1.033  0.0564 -0.1156  0.0775
  626SOL    HW1 3072   0.947   0.811   1.128 -1.8875 -1.3946  0.4223
  626SOL    HW2 3073   0.919   0.880   0.996 -0.2813  0.1376  0.8502
  627SOL     OW 3074   3.774   3.854   2.782 -0.0718  0.3490 -0.0943
  627SOL    HW1 3075   3.847   3.880   2.726 -0.3656  1.6864  0.0967
  627SOL    HW2 3076   3.814   3.813   2.858  0.4413  0.3792 -0.3471
  628SOL     OW 3077   4.287   6.271   8.247 -0.0934 -0.3792  0.0447
  628SOL    HW1 3078   4.321   6.301   8.163  0.9874  0.8906  0.8928
  628SOL    HW2 3079   4.203   6.316   8.257  0.7002  1.0442  0.5090
  629SOL     OW 3080   1.973   4.649   7.955 -0.4474  0.1148  0.2099
  629SOL    HW1 3081   1.898   4.666   8.013 -1.3752  4.0316 -1.7812
  629SOL    HW2 3082   1.935   4.615   7.875 -0.0826  1.5560 -0.6033
  630SOL     OW 3083   8.383   6.562   2.994 -0.0348 -0.3973 -0.9001
  630SOL    HW1 3084   8.319   6.511   2.942 -0.9284 -1.1377  0.8339
  630SOL    HW2 3085   8.462   6.509   2.992  0.2013 -0.0353 -2.1209
  631SOL     OW 3086   7.069   8.353   5.252 -0.1343 -0.5053  0.1804
  631SOL    HW1 3087   7.132   8.403   5.201 -1.1765 -0.0219 -0.6649
  631SOL    HW2 3088   7.027   8.418   5.308 -1.1073 -0.4984 -0.5274
  632SOL     OW 3089   0.873   6.807   6.754 -0.4368  0.6214  0.1018
  632SOL    HW1 3090   0.882   6.716   6.783  0.9071  0.8193  0.3592
  632SOL    HW2 3091   0.847   6.800   6.662 -1.3330 -0.0020  0.3822
  633SOL     OW 3092   0.779   6.483   1.560  0.4971  0.0468 -0.1863
  633SOL    HW1 3093   0.875   6.483   1.558  0.5131  0.0914  0.3711
  633SOL    HW2 3094   0.757   6.420   1.628  0.1630  1.0644  0.6716
  634SOL     OW 3095   4.434   1.355   4.974  0.1642  0.0771 -0.2155
  634SOL    HW1 3096   4.485   1.356   5.055 -0.2049  1.0080  0.0225
  634SOL    HW2 3097   4.391   1.441   4.972 -1.7452 -0.8482 -0.2028
  635SOL     OW 3098   7.464   4.639   1.285  0.0885 -0.5596 -0.2171
  635SOL    HW1 3099   7.476   4.560   1.338 -2.1335 -1.8423 -1.4677
  635SOL    HW2 3100   7.548   4.685   1.290  0.6253 -1.6464  2.6764
  636SOL     OW 3101   1.932   2.786   6.048 -0.2497  0.5764  0.1663
  636SOL    HW1 3102   1.860   2.732   6.080 -0.8373  0.8856 -0.6071
  636SOL    HW2 3103   1.891   2.868   6.021  0.2795  0.5133 -0.8942
  637SOL     OW 3104   0.584   2.332   8.085 -0.1076  0.0952 -0.3142
  637SOL    HW1 3105   0.591   2.239   8.064 -0.3901  0.0433 -0.1764
  637SOL    HW2 3106   0.515   2.365   8.027 -2.1563 -0.4118  1.7072
  638SOL     OW 3107   8.564   2.938   0.917 -0.1427  0.0697 -0.2981
  638SOL    HW1 3108   8.495   2.922   0.852  0.6403  0.3913 -1.2401
  638SOL    HW2 3109   8.569   2.858   0.968 -0.3569 -0.4326 -1.0500
  639SOL     OW 3110   3.435   1.988   4.527 -0.0306  0.1587  0.0500
  639SOL    HW1 3111   3.476   1.911   4.567 -0.7316  0.1810  0.8303
  639SOL    HW2 3112   3.349   1.957   4.500 -0.3885  0.7156  0.5343
  640SOL     OW 3113   2.462   7.284   2.199 -0.4266 -0.3537  0.1549
  640SOL    HW1 3114   2.552   7.286   2.232 -0.2694 -0.2472 -0.2645
  640SOL    HW2 3115   2.413   7.343   2.256  0.1889  1.1326 -0.7734
  641SOL     OW 3116   1.370   1.489   2.785 -0.2210 -0.1033  0.1967
  641SOL    HW1 3117   1.427   1.415   2.764 -0.3140 -0.0667 -0.1978
  641SOL    HW2 3118   1.355   1.482   2.879  0.8831  0.2036  0.4201
  642SOL     OW 3119   1.248   3.921   1.213 -0.3248 -0.5334 -0.6676
  642SOL    HW1 3120   1.282   3.938   1.300 -3.0048  0.9661  0.2174
  642SOL    HW2 3121   1.259   3.827   1.200  1.1683 -0.5933  0.7916
  643SOL     OW 3122   0.291   3.676   7.785 -1.1451  0.1769 -0.2801
  643SOL    HW1 3123   0.220   3.667   7.850 -0.9843 -1.5876 -0.2998
  643SOL    HW2 3124   0.295   3.770   7.768 -3.0870  0.3983  0.1637
  644SOL     OW 3125   1.888   2.291   2.396  0.1237 -0.1247 -0.5152
  644SOL    HW1 3126   1.913   2.378   2.426  0.5005  0.0672 -1.3698
  644SOL    HW2 3127   1.970   2.251   2.366 -0.1264 -0.5842 -0.5988
  645SOL     OW 3128   2.139   1.254   7.355 -0.3308  0.6283  0.0284
  645SOL    HW1 3129   2.126   1.338   7.310 -0.6932  0.6553  0.1791
  645SOL    HW2 3130   2.197   1.274   7.428 -0.0757  0.6652 -0.1822
  646SOL     OW 3131   5.521   3.710   4.787  0.2812  0.0617  0.3173
  646SOL    HW1 3132   5.469   3.656   4.727  0.1494  1.0728 -0.5288
  646SOL    HW2 3133   5.606   3.718   4.745  0.2030  0.7460  0.2749
  647SOL     OW 3134   2.764   2.740   1.827  0.2054  0.0561 -0.4819
  647SOL    HW1 3135   2.701   2.679   1.865 -0.7753  1.2600 -0.0801
  647SOL    HW2 3136   2.710   2.811   1.792  1.3588  1.8407  1.1696
  648SOL     OW 3137   1.453   3.503   8.237  0.2212 -0.5694  0.2460
  648SOL    HW1 3138   1.464   3.419   8.194  1.0041  0.0432 -0.7957
  648SOL    HW2 3139   1.477   3.568   8.171  2.3535  0.3964  1.8256
  649SOL     OW 3140   1.909   6.871   1.581  0.0358  0.3107 -0.7378
  649SOL    HW1 3141   1.935   6.807   1.514  1.5870  1.1705 -0.9954
  649SOL    HW2 3142   1.857   6.936   1.534  1.3574  1.0636 -1.2044
  650SOL     OW 3143   7.303   1.008   1.662  0.8838 -0.0180 -0.0317
  650SOL    HW1 3144   7.230   0.973   1.612  1.7297 -0.9692 -0.6447
  650SOL    HW2 3145   7.280   0.992   1.754 -0.0035  0.3877 -0.1768
  651SOL     OW 3146   3.645   4.473   0.220 -0.0640 -0.2889 -0.1680
  651SOL    HW1 3147   3.690   4.454   0.137 -2.1313 -1.7878 -1.0517
  651SOL    HW2 3148   3.685   4.413   0.283  0.7458  0.0525 -0.3425
  652SOL     OW 3149   1.769   6.363   3.610  0.3936 -0.0761 -0.0614
  652SOL    HW1 3150   1.739   6.452   3.628 -1.6915 -0.5402 -0.9451
  652SOL    HW2 3151   1.815   6.336   3.689 -0.2335  1.2632  0.7877
  653SOL     OW 3152   7.227   2.464   2.439 -0.0350 -0.0263  0.0615
  653SOL    HW1 3153   7.303   2.470   2.497 -0.7322 -0.8189  1.1066
  653SOL    HW2 3154   7.158   2.510   2.487 -0.6683 -0.8287 -0.0600
  654SOL     OW 3155   2.948   3.515   3.088  0.0238 -0.3987 -0.3814
  654SOL    HW1 3156   2.988   3.547   3.008  0.6709  0.2369  0.1940
  654SOL    HW2 3157   2.866   3.564   3.095  0.4012  0.2140 -0.1789
  655SOL     OW 3158   1.073   3.675   5.991 -0.0077 -0.1366  0.2574
  655SOL    HW1 3159   1.106   3.638   6.073  0.1043 -1.1541 -0.2270
  655SOL    HW2 3160   1.004   3.615   5.964  0.2430 -0.0514 -0.6064
  656SOL     OW 3161   4.905   5.947   3.645 -0.2067  0.5852 -0.3092
  656SOL    HW1 3162   4.969   5.986   3.585 -0.4266  0.5843 -0.5429
  656SOL    HW2 3163   4.883   6.018   3.705 -0.0862  0.6229 -0.3087
  657SOL     OW 3164   5.684   6.693   1.086 -0.1911 -0.2486 -0.4192
  657SOL    HW1 3165   5.596   6.660   1.102  0.2112 -1.0008  0.3087
  657SOL    HW2 3166   5.742   6.628   1.127  0.6933  0.3052 -0.7664
  658SOL     OW 3167   5.203   7.528   3.786 -0.2988 -0.6835  0.4904
  658SOL    HW1 3168   5.164   7.454   3.832  0.5532 -0.4635  1.6011
  658SOL    HW2 3169   5.136   7.595   3.788 -0.2821 -0.6778  1.4417
  659SOL     OW 3170   0.923   2.771   5.899  0.0944 -0.1966  0.2577
  659SOL    HW1 3171   0.912   2.753   5.993 -2.5586 -2.2784 -0.3341
  659SOL    HW2 3172   0.856   2.836   5.880 -1.1846 -1.6952 -0.6053
  660SOL     OW 3173   6.860   7.491   2.667  0.4530  0.2113 -0.2432
  660SOL    HW1 3174   6.770   7.478   2.699  0.0662 -0.0200 -1.3667
  660SOL    HW2 3175   6.915   7.480   2.744 -0.4762  0.1770  0.4320
  661SOL     OW 3176   2.805   6.282   8.081  0.1486 -0.5168  0.0513
  661SOL    HW1 3177   2.758   6.283   7.998  0.8245  0.5802 -0.3496
  661SOL    HW2 3178   2.886   6.235   8.063  0.0468 -0.7618  0.2338
  662SOL     OW 3179   5.747   2.072   6.342  0.2967 -1.0291 -0.4432
  662SOL    HW1 3180   5.750   2.130   6.418 -0.0406 -1.0033 -0.4511
  662SOL    HW2 3181   5.663   2.027   6.348  0.3847 -1.2275 -0.6536
  663SOL     OW 3182   1.555   2.833   8.155  0.5958 -0.0596 -0.3347
  663SOL    HW1 3183   1.531   2.800   8.242  0.2666 -0.2444 -0.4945
  663SOL    HW2 3184   1.481   2.809   8.099 -0.0408  1.6758 -0.2835
  664SOL     OW 3185   5.428   2.322   3.725 -0.0702 -0.2860  0.1885
  664SOL    HW1 3186   5.461   2.317   3.815 -1.7817 -3.5905  0.7944
  664SOL    HW2 3187   5.433   2.233   3.693 -1.1150  0.5037 -2.4092
  665SOL     OW 3188   6.625   3.186   7.157 -0.2038 -0.0021 -0.2201
  665SOL    HW1 3189   6.706   3.162   7.113  0.2921 -1.0366  1.1687
  665SOL    HW2 3190   6.555   3.151   7.102  0.3503 -0.3969 -0.6750
  666SOL     OW 3191   2.521   4.875   5.520  0.1299 -0.0687 -0.8248
  666SOL    HW1 3192   2.496   4.783   5.515  0.8773 -0.2076 -3.3339
  666SOL    HW2 3193   2.616   4.873   5.526  0.0554  0.5572  1.1438
  667SOL     OW 3194   8.120   5.210   4.730  0.5804 -0.8439  0.1279
  667SOL    HW1 3195   8.213   5.226   4.721  0.5594 -0.3915  0.6664
  667SOL    HW2 3196   8.095   5.166   4.649  0.9546  0.4061 -0.6867
  668SOL     OW 3197   4.483   4.729   6.835  0.1985 -0.6431  0.0471
  668SOL    HW1 3198   4.564   4.768   6.868 -0.5043  1.2367 -0.3186
  668SOL    HW2 3199   4.478   4.758   6.744 -2.0750  1.4547  0.7305
  669SOL     OW 3200   5.323   7.047   3.835 -0.4233 -0.3062  0.2146
  669SOL    HW1 3201   5.391   6.992   3.876 -0.0491 -0.6517 -0.8321
  669SOL    HW2 3202   5.253   7.050   3.899 -0.2916 -1.7062  0.4587
  670SOL     OW 3203   7.476   0.168   8.195 -0.0587  0.3858 -0.3126
  670SOL    HW1 3204   7.543   0.223   8.236  1.2206 -1.1754 -0.2452
  670SOL    HW2 3205   7.416   0.146   8.266  0.2379  0.4807 -0.0331
  671SOL     OW 3206   0.631   7.582   1.196 -0.1594  0.2450 -0.0508
  671SOL    HW1 3207   0.700   7.646   1.216 -0.3424  1.3448 -2.6043
  671SOL    HW2 3208   0.550   7.630   1.212 -0.3609 -0.3775  0.9080
  672SOL     OW 3209   3.196   7.436   2.036 -0.1806  0.7257 -0.5923
  672SOL    HW1 3210   3.208   7.341   2.035 -2.0590  0.4370  0.1916
  672SOL    HW2 3211   3.224   7.464   1.949  0.3889 -0.5437 -0.8436
  673SOL     OW 3212   0.563   4.292   2.832 -0.2809 -0.2393 -0.2965
  673SOL    HW1 3213   0.637   4.352   2.823  0.0761 -0.7836 -1.1207
  673SOL    HW2 3214   0.486   4.349   2.838  0.2137  0.3328  0.7978
  674SOL     OW 3215   8.252   6.632   3.275 -0.1774  0.0779  0.2784
  674SOL    HW1 3216   8.245   6.661   3.184  0.2836  0.2582  0.3015
  674SOL    HW2 3217   8.263   6.537   3.269  1.4262  0.2492  0.0743
  675SOL     OW 3218   7.206   3.955   3.274  0.3189 -0.4567  0.7175
  675SOL    HW1 3219   7.285   3.903   3.262 -0.6792 -1.8003 -0.3393
  675SOL    HW2 3220   7.173   3.930   3.360  1.4241  0.7053  1.5180
  676SOL     OW 3221   3.868   8.522   2.112  0.4736  0.8516  0.1505
  676SOL    HW1 3222   3.873   8.507   2.017  0.3932  0.1476  0.2514
  676SOL    HW2 3223   3.886   8.615   2.122  1.7311  0.6897 -0.4524
  677SOL     OW 3224   3.306   2.445   7.632 -0.2658  0.3307  0.4330
  677SOL    HW1 3225   3.284   2.517   7.691 -4.0233 -0.4511  0.2062
  677SOL    HW2 3226   3.250   2.458   7.556  2.6397 -0.1007 -1.9722
  678SOL     OW 3227   2.645   7.026   8.157 -0.3992  0.3408 -0.4337
  678SOL    HW1 3228   2.710   7.029   8.087 -0.4682  0.7702 -0.4801
  678SOL    HW2 3229   2.657   6.940   8.197 -1.2799 -0.4781 -1.8570
  679SOL     OW 3230   7.358   6.072   4.547 -0.6341 -0.1714 -0.2708
  679SOL    HW1 3231   7.273   6.027   4.553  0.2179 -1.7540  0.2458
  679SOL    HW2 3232   7.381   6.092   4.637 -0.1091 -0.3822 -0.3589
  680SOL     OW 3233   6.791   4.610   8.174  0.2504  0.2959 -0.1267
  680SOL    HW1 3234   6.844   4.607   8.254 -1.3343  2.1010  1.0992
  680SOL    HW2 3235   6.738   4.690   8.184 -0.1910  0.4304 -2.8849
  681SOL     OW 3236   1.697   8.384   8.055 -0.0338  0.2659  0.3373
  681SOL    HW1 3237   1.693   8.390   8.150 -0.3873  0.5131  0.3106
  681SOL    HW2 3238   1.650   8.462   8.024  0.2320  0.2813 -0.0370
  682SOL     OW 3239   5.931   7.208   4.621  0.5757 -0.3037  0.0910
  682SOL    HW1 3240   5.932   7.294   4.581  0.1829 -0.7331 -0.8697
  682SOL    HW2 3241   5.881   7.154   4.561  0.7110 -1.1773  0.7391
  683SOL     OW 3242   2.480   7.074   0.972 -0.2149 -0.2488 -0.3040
  683SOL    HW1 3243   2.566   7.043   0.945  0.4043  1.7704 -0.8209
  683SOL    HW2 3244   2.425   7.065   0.895  0.0271  0.1644 -0.5261
  684SOL     OW 3245   0.025   7.812   3.051 -0.3843 -0.2561 -0.6001
  684SOL    HW1 3246   0.060   7.756   3.120  0.1454  0.9319  0.1271
  684SOL    HW2 3247  -0.069   7.816   3.069 -0.3228 -0.3642 -0.2536
  685SOL     OW 3248   3.111   2.178   3.746 -0.1704  0.6407  0.0017
  685SOL    HW1 3249   3.141   2.087   3.750  3.2643  1.6320 -0.4192
  685SOL    HW2 3250   3.186   2.227   3.713 -1.8413  3.7005  0.3754
  686SOL     OW 3251   3.265   6.753   4.503 -0.0853  0.4940 -0.4114
  686SOL    HW1 3252   3.298   6.843   4.508  1.5910 -0.0981 -0.2934
  686SOL    HW2 3253   3.286   6.725   4.414  1.5539 -0.5390  0.2557
  687SOL     OW 3254   4.998   0.354   0.102  0.0492  0.1879 -0.6007
  687SOL    HW1 3255   4.915   0.400   0.110  0.2733  0.5738 -0.4630
  687SOL    HW2 3256   5.034   0.354   0.191 -0.9025 -2.0979 -0.1427
  688SOL     OW 3257   0.950   4.070   1.619 -0.3381  0.4700 -0.0749
  688SOL    HW1 3258   1.037   4.105   1.634  0.2457 -1.0361  0.1959
  688SOL    HW2 3259   0.952   4.037   1.529 -0.6552  0.5177 -0.1015
  689SOL     OW 3260   0.457   2.441   1.518  1.0751  0.2447 -0.7487
  689SOL    HW1 3261   0.435   2.432   1.426 -0.9891  0.3143 -0.3188
  689SOL    HW2 3262   0.379   2.481   1.557  0.8529 -2.0830  1.4474
  690SOL     OW 3263   1.811   5.934   1.882  0.1985 -0.1711  0.5513
  690SOL    HW1 3264   1.895   5.949   1.924 -0.7344  0.9606  2.1338
  690SOL    HW2 3265   1.784   5.847   1.912  0.4781 -0.2190  0.6604
  691SOL     OW 3266   8.012   4.076   3.529  0.5651  0.7958 -0.0448
  691SOL    HW1 3267   8.013   3.993   3.578  0.6728  0.7248 -0.1639
  691SOL    HW2 3268   7.923   4.109   3.538  0.2108  0.1111 -0.9234
  692SOL     OW 3269   1.477   4.776   0.465  0.6366  0.0730 -0.2805
  692SOL    HW1 3270   1.530   4.780   0.385 -0.8856  2.0113 -1.2941
  692SOL    HW2 3271   1.394   4.737   0.436 -0.1928  1.4507  0.1407
  693SOL     OW 3272   6.315   8.264   6.907  0.0249 -0.0204 -0.0135
  693SOL    HW1 3273   6.398   8.311   6.898  0.4327 -0.8953 -0.9681
  693SOL    HW2 3274   6.316   8.232   6.997  1.5257 -1.4376 -0.4721
  694SOL     OW 3275   4.587   8.231   0.762 -0.2185  0.1387  0.3746
  694SOL    HW1 3276   4.492   8.238   0.771 -0.2644 -2.0316  2.9727
  694SOL    HW2 3277   4.600   8.153   0.707  0.0372 -0.0735  0.7303
  695SOL     OW 3278   2.885   2.215   1.599  0.6251 -0.1606 -0.0334
  695SOL    HW1 3279   2.864   2.139   1.545 -1.2392 -1.0560  1.7974
  695SOL    HW2 3280   2.844   2.289   1.554 -0.8510 -0.8788  0.0754
  696SOL     OW 3281   5.983   0.548   5.184 -0.3466  0.2475  0.2891
  696SOL    HW1 3282   5.949   0.500   5.260 -0.1773  0.5338  0.5514
  696SOL    HW2 3283   5.921   0.530   5.114 -0.9208  0.5831  0.7009
  697SOL     OW 3284   4.073   4.809   0.786  0.1072 -0.2056 -0.0891
  697SOL    HW1 3285   4.161   4.770   0.789  0.1922  0.0406  0.9689
  697SOL    HW2 3286   4.028   4.762   0.716  1.1932 -0.1057 -0.8811
  698SOL     OW 3287   1.636   4.912   2.364 -0.5282  0.0529  0.6944
  698SOL    HW1 3288   1.658   5.005   2.370 -1.8331  0.3708  0.8406
  698SOL    HW2 3289   1.634   4.894   2.270  2.6349 -0.6032  0.6401
  699SOL     OW 3290   5.015   7.026   1.604 -0.3070 -0.3394 -0.0746
  699SOL    HW1 3291   5.012   7.086   1.530  1.2560 -0.5342 -0.3461
  699SOL    HW2 3292   4.990   6.941   1.567 -1.3243 -0.0984  0.0404
  700SOL     OW 3293   6.196   7.543   2.904  0.0507 -0.1539  0.3142
  700SOL    HW1 3294   6.218   7.619   2.850  0.9851 -0.1982  0.6257
  700SOL    HW2 3295   6.192   7.470   2.842 -1.5803  0.2420 -0.1104
  701SOL     OW 3296   2.848   6.219   0.011  0.3072 -0.1070  0.1218
  701SOL    HW1 3297   2.874   6.214   0.103  2.2329 -0.1169 -0.3712
  701SOL    HW2 3298   2.864   6.131  -0.024  1.0120  0.2616 -0.5333
  702SOL     OW 3299   0.285   4.974   0.362 -0.4093 -0.1877  0.2424
  702SOL    HW1 3300   0.261   4.913   0.293  0.8208  1.0144 -1.3108
  702SOL    HW2 3301   0.247   4.936   0.442 -2.2416 -1.3739 -1.1274
  703SOL     OW 3302   3.605   7.745   8.554 -0.6527  0.2663 -0.1904
  703SOL    HW1 3303   3.529   7.687   8.545 -0.3665 -0.2661  0.6982
  703SOL    HW2 3304   3.674   7.702   8.503 -0.0003 -1.0169  1.6378
  704SOL     OW 3305   1.709   1.880   0.156  0.4049 -0.2318 -0.1741
  704SOL    HW1 3306   1.621   1.840   0.150 -0.2885  1.1495  0.4862
  704SOL    HW2 3307   1.707   1.950   0.091  1.3030 -0.6662 -0.6846
  705SOL     OW 3308   3.854   7.905   2.042  0.0828  0.7131 -0.1187
  705SOL    HW1 3309   3.866   7.816   2.008 -1.2858  0.3286  0.3316
  705SOL    HW2 3310   3.792   7.946   1.981  0.7896  1.4198 -0.3886
  706SOL     OW 3311   4.296   2.467   4.363  0.1043 -0.6637 -0.3731
  706SOL    HW1 3312   4.348   2.415   4.301 -0.8469 -2.8705  0.5600
  706SOL    HW2 3313   4.216   2.416   4.375 -0.4320  0.5107  1.4326
  707SOL     OW 3314   2.982   8.391   2.058 -0.0731 -0.2037 -0.2632
  707SOL    HW1 3315   2.952   8.365   1.971 -0.0870 -0.6627 -0.1247
  707SOL    HW2 3316   2.948   8.480   2.070 -3.0489 -1.3657  0.6786
  708SOL     OW 3317   6.144   6.472   0.910 -0.4473  0.6290  0.8521
  708SOL    HW1 3318   6.144   6.478   1.005 -0.7852  1.1253  0.8237
  708SOL    HW2 3319   6.090   6.546   0.881  0.5813  1.1562  0.2349
  709SOL     OW 3320   8.121   2.519   0.674 -0.2283  0.3563 -0.0968
  709SOL    HW1 3321   8.043   2.503   0.621 -0.1379  0.7676 -0.3542
  709SOL    HW2 3322   8.126   2.614   0.682 -0.2735  0.3026  0.6988
  710SOL     OW 3323   7.484   1.635   1.247  0.0396  0.0828  0.5876
  710SOL    HW1 3324   7.390   1.655   1.245 -0.1215 -0.7198 -0.3686
  710SOL    HW2 3325   7.518   1.672   1.165 -0.0830 -2.5781 -0.7441
  711SOL     OW 3326   4.373   8.005   4.267  0.1943  0.2183  0.6146
  711SOL    HW1 3327   4.351   8.084   4.217  1.6210  0.3539  0.1239
  711SOL    HW2 3328   4.434   8.036   4.334  1.1286 -0.5173  0.1284
  712SOL     OW 3329   8.351   0.921   5.248 -0.0336  0.0216 -0.4367
  712SOL    HW1 3330   8.429   0.899   5.196 -0.8889  0.4729 -1.9449
  712SOL    HW2 3331   8.316   1.000   5.207 -1.0097  0.1236  0.5565
  713SOL     OW 3332   6.478   2.872   1.263  0.6670  0.6421  0.3761
  713SOL    HW1 3333   6.406   2.818   1.295  0.2871  0.3588 -0.8711
  713SOL    HW2 3334   6.479   2.856   1.168  0.3769  3.0150 -0.0829
  714SOL     OW 3335   6.892   6.400   4.907 -0.1515 -0.0888  0.6153
  714SOL    HW1 3336   6.800   6.421   4.926 -0.7161 -2.3140  0.5551
  714SOL    HW2 3337   6.931   6.382   4.992  0.2915  0.9208  0.6481
  715SOL     OW 3338   3.689   6.219   2.117  0.6021  0.2129 -0.2258
  715SOL    HW1 3339   3.696   6.226   2.021  0.0045  0.5652 -0.2453
  715SOL    HW2 3340   3.669   6.126   2.132  1.1970  0.0471 -0.4054
  716SOL     OW 3341   4.082   5.683   6.662  0.0091  0.7414 -0.0670
  716SOL    HW1 3342   4.054   5.657   6.574  0.7263 -0.2545 -0.0168
  716SOL    HW2 3343   4.044   5.617   6.720 -2.2379  2.5554  0.6576
  717SOL     OW 3344   3.843   2.522   0.189  0.0124 -0.4037 -0.1854
  717SOL    HW1 3345   3.866   2.442   0.236 -1.4019  0.4396  2.0723
  717SOL    HW2 3346   3.885   2.512   0.103 -0.1858 -3.5602 -0.0112
  718SOL     OW 3347   5.955   5.051   3.092  0.4360  0.3403 -0.3344
  718SOL    HW1 3348   5.996   5.004   3.020  0.9560  2.7385 -1.7099
  718SOL    HW2 3349   5.883   4.994   3.119  0.6212 -0.9399 -2.3046
  719SOL     OW 3350   0.190   6.115   1.483 -0.3780 -0.0881 -0.6628
  719SOL    HW1 3351   0.102   6.146   1.504  0.5433  2.1180  0.3248
  719SOL    HW2 3352   0.244   6.194   1.487  1.5719 -1.2935 -1.7398
  720SOL     OW 3353   7.593   2.219   1.736 -0.5523  0.8703  0.2257
  720SOL    HW1 3354   7.651   2.254   1.669 -1.6169  1.2106 -0.5527
  720SOL    HW2 3355   7.595   2.124   1.722 -0.2825  0.8908  0.1258
  721SOL     OW 3356   8.382   0.747   1.582  0.1064  0.3316  0.2809
  721SOL    HW1 3357   8.315   0.815   1.583 -2.1118 -1.7140 -0.5459
  721SOL    HW2 3358   8.340   0.671   1.623  2.2235 -0.7855  0.5186
  722SOL     OW 3359   3.285   1.322   6.208 -0.2245 -0.0376 -0.5691
  722SOL    HW1 3360   3.220   1.294   6.144 -2.4805 -0.9679  1.9273
  722SOL    HW2 3361   3.299   1.415   6.189 -0.4068 -0.3824 -2.6623
  723SOL     OW 3362   0.200   7.206   5.615 -0.5467  0.0825  0.9243
  723SOL    HW1 3363   0.232   7.290   5.648  0.0871 -0.0037  0.5441
  723SOL    HW2 3364   0.108   7.204   5.642 -0.2059  0.2639  2.1489
  724SOL     OW 3365   6.821   4.904   1.784  0.0038  0.2968  0.3426
  724SOL    HW1 3366   6.846   4.996   1.792 -1.3977  0.7349 -0.0818
  724SOL    HW2 3367   6.725   4.905   1.783 -0.0276 -1.1220 -0.1636
  725SOL     OW 3368   7.745   8.409   2.506  0.3172  0.1686 -0.5013
  725SOL    HW1 3369   7.688   8.485   2.518 -0.5334 -0.4034 -0.8939
  725SOL    HW2 3370   7.834   8.446   2.509 -0.0940  1.3382 -1.6164
  726SOL     OW 3371   5.000   3.582   3.280 -0.1267  1.0901  0.2712
  726SOL    HW1 3372   5.060   3.600   3.207 -2.0225 -0.9480 -1.9539
  726SOL    HW2 3373   5.043   3.621   3.356  3.6228  0.4134 -1.2795
  727SOL     OW 3374   3.804   2.117   3.894  0.6841  0.0073  0.1651
  727SOL    HW1 3375   3.791   2.102   3.800  2.4926 -0.7512 -0.0040
  727SOL    HW2 3376   3.897   2.138   3.903  0.3638  0.9624  1.7011
  728SOL     OW 3377   5.513   6.724   8.435  0.1808 -0.0391  0.1634
  728SOL    HW1 3378   5.424   6.731   8.400 -1.4582  0.6536  3.9326
  728SOL    HW2 3379   5.509   6.769   8.519  3.6302 -1.5970  1.3478
  729SOL     OW 3380   4.868   6.082   2.051 -0.1969 -0.1936  0.0473
  729SOL    HW1 3381   4.882   6.048   1.963 -1.6268 -2.6758  0.6748
  729SOL    HW2 3382   4.775   6.105   2.054 -0.7339 -2.2088  1.4518
  730SOL     OW 3383   7.888   0.531   2.943 -0.0525 -0.7718 -0.5168
  730SOL    HW1 3384   7.850   0.535   2.855 -0.1728 -1.6452 -0.5148
  730SOL    HW2 3385   7.814   0.514   3.000  0.0763 -0.5356 -0.2764
  731SOL     OW 3386   7.685   6.762   1.063  0.0369  0.3308 -0.2825
  731SOL    HW1 3387   7.745   6.762   1.138 -0.7472  0.9750  0.3646
  731SOL    HW2 3388   7.681   6.854   1.037  1.4016 -0.0555 -2.0473
  732SOL     OW 3389   6.427   8.264   4.442  0.4029 -0.1665  0.4545
  732SOL    HW1 3390   6.343   8.219   4.444 -0.9752  2.2436  2.3580
  732SOL    HW2 3391   6.430   8.306   4.356  0.1357 -1.0049  0.0211
  733SOL     OW 3392   1.154   8.555   1.877 -0.2541 -0.1330  0.1305
  733SOL    HW1 3393   1.075   8.608   1.885  0.5834  1.1838  0.0957
  733SOL    HW2 3394   1.143   8.484   1.940 -0.3154  1.5480  2.1341
  734SOL     OW 3395   1.000   6.953   4.428  0.0701  0.4590  0.3611
  734SOL    HW1 3396   0.972   6.880   4.373 -0.2172  0.5140  0.4319
  734SOL    HW2 3397   1.059   7.004   4.373 -0.0607  0.4056  0.1731
  735SOL     OW 3398   2.120   8.262   5.801  0.0490 -0.1771 -0.1960
  735SOL    HW1 3399   2.204   8.254   5.846  0.4610  2.4314 -0.3878
  735SOL    HW2 3400   2.080   8.340   5.837 -1.4022 -0.2430 -1.5479
  736SOL     OW 3401   7.874   8.598   2.248  0.2772  0.1364  0.2224
  736SOL    HW1 3402   7.784   8.597   2.280 -0.4525  0.5746 -1.6880
  736SOL    HW2 3403   7.866   8.605   2.153  2.3104 -1.1950 -0.1215
  737SOL     OW 3404   7.513   4.842   4.580  0.1692  0.4421  0.0145
  737SOL    HW1 3405   7.598   4.850   4.537  0.6077 -0.2486  0.7307
  737SOL    HW2 3406   7.532   4.850   4.673 -0.3409 -1.1391  0.2898
  738SOL     OW 3407   8.576   0.234   3.465 -0.0992 -0.4480  0.7338
  738SOL    HW1 3408   8.554   0.317   3.423  0.5277 -0.3465  0.5967
  738SOL    HW2 3409   8.582   0.171   3.393  1.8311 -0.0967  0.5201
  739SOL     OW 3410   1.811   8.207   6.144  0.3693 -0.3645 -0.2918
  739SOL    HW1 3411   1.746   8.179   6.080  0.3193 -2.0715  0.4413
  739SOL    HW2 3412   1.832   8.297   6.120 -1.2525 -0.2357 -1.3640
  740SOL     OW 3413   6.404   5.219   2.835 -0.4814 -0.2639 -0.3677
  740SOL    HW1 3414   6.440   5.208   2.923  0.8147  0.3917 -0.7814
  740SOL    HW2 3415   6.345   5.293   2.842  0.7763  0.7647 -0.3448
  741SOL     OW 3416   1.194   3.824   2.253  0.1053 -0.5285  0.1494
  741SOL    HW1 3417   1.281   3.863   2.255  0.9518 -2.2860 -0.0959
  741SOL    HW2 3418   1.195   3.758   2.323 -0.8467 -0.9168 -0.1792
  742SOL     OW 3419   0.583   7.842   5.603  0.3939 -0.5161 -0.1066
  742SOL    HW1 3420   0.584   7.747   5.590  1.8164 -0.5314 -0.0022
  742SOL    HW2 3421   0.672   7.870   5.582  0.2540  0.6728  0.7831
  743SOL     OW 3422   5.495   6.105   1.836  0.0033 -0.2538  0.1484
  743SOL    HW1 3423   5.520   6.177   1.894  1.1854  0.4176 -1.1327
  743SOL    HW2 3424   5.399   6.105   1.836 -0.0213  1.6305 -0.1636
  744SOL     OW 3425   8.283   1.563   4.851  0.2437  0.0203 -0.6637
  744SOL    HW1 3426   8.351   1.629   4.860 -0.7370  0.7601  3.2155
  744SOL    HW2 3427   8.202   1.613   4.844 -0.4218 -0.6671  1.4018
  745SOL     OW 3428   0.900   7.696   5.128 -0.1335  0.4436 -0.3544
  745SOL    HW1 3429   0.991   7.727   5.126 -0.1318  0.5900  0.9624
  745SOL    HW2 3430   0.848   7.772   5.103  0.0049  0.9755  0.8670
  746SOL     OW 3431   1.885   3.249   0.396 -0.2757  0.3447 -0.4432
  746SOL    HW1 3432   1.871   3.290   0.310 -1.4314  0.4066 -0.2496
  746SOL    HW2 3433   1.803   3.202   0.413  0.4125 -0.6969  0.0759
  747SOL     OW 3434   6.579   6.813   6.414  0.1441 -0.4783  0.0371
  747SOL    HW1 3435   6.570   6.790   6.322  1.2105 -0.6764 -0.0200
  747SOL    HW2 3436   6.650   6.759   6.446  1.7903  1.6845  0.2354
  748SOL     OW 3437   3.131   4.121   5.125 -0.2029  0.0054  0.2585
  748SOL    HW1 3438   3.108   4.057   5.192 -0.2323 -1.5603 -1.1816
  748SOL    HW2 3439   3.195   4.076   5.070 -2.0489  0.2208 -2.2502
  749SOL     OW 3440   5.937   4.537   6.557 -0.3813 -0.4024 -0.2592
  749SOL    HW1 3441   5.933   4.627   6.522  0.1307  0.4369  1.7003
  749SOL    HW2 3442   5.863   4.492   6.516 -0.5882  0.8726 -1.3687
  750SOL     OW 3443   5.784   7.057   0.613  0.3937 -0.2951  0.6309
  750SOL    HW1 3444   5.748   7.005   0.684 -0.6552  3.4674  3.1722
  750SOL    HW2 3445   5.861   7.099   0.651 -1.6737  3.9339  0.8113
  751SOL     OW 3446   3.168   3.470   8.539 -0.3062 -0.2015 -0.2679
  751SOL    HW1 3447   3.152   3.405   8.470 -0.5043 -0.6745  0.2132
  751SOL    HW2 3448   3.092   3.529   8.534 -0.8190 -0.8014  0.1690
  752SOL     OW 3449   5.694   1.837   5.283  0.2172  0.5615  0.4624
  752SOL    HW1 3450   5.730   1.753   5.310 -0.0446  0.3620  0.1865
  752SOL    HW2 3451   5.600   1.823   5.278  0.3662  0.0853 -2.2808
  753SOL     OW 3452   4.599   4.512   0.813  0.7654 -0.0027  0.0550
  753SOL    HW1 3453   4.555   4.464   0.884 -1.8369  0.5519 -1.0552
  753SOL    HW2 3454   4.656   4.448   0.771 -1.0014 -1.5681 -0.0654
  754SOL     OW 3455   3.217   4.266   7.172  0.4454  0.6029 -0.3545
  754SOL    HW1 3456   3.264   4.238   7.251 -2.8790  0.5718  1.8319
  754SOL    HW2 3457   3.264   4.343   7.141  4.1669 -1.5859 -0.8233
  755SOL     OW 3458   2.568   0.641   4.326  0.2184  0.1795  0.3808
  755SOL    HW1 3459   2.542   0.556   4.363  1.4004 -0.6171 -0.5461
  755SOL    HW2 3460   2.536   0.705   4.389  0.4727 -1.0207  1.7847
  756SOL     OW 3461   8.206   2.630   1.557 -0.6330  0.4732  0.5433
  756SOL    HW1 3462   8.166   2.649   1.643 -1.6221  0.6122  0.0677
  756SOL    HW2 3463   8.274   2.697   1.547  0.0438 -0.0322  1.5606
  757SOL     OW 3464   7.181   2.540   7.007 -0.1865 -0.7807 -0.3702
  757SOL    HW1 3465   7.143   2.453   7.019 -0.1602 -0.7179  0.1945
  757SOL    HW2 3466   7.197   2.571   7.096 -2.5122  0.8568 -0.4426
  758SOL     OW 3467   0.446   1.209   4.464  0.1439 -0.2581 -0.0021
  758SOL    HW1 3468   0.463   1.278   4.400  1.6631 -0.3321  0.2984
  758SOL    HW2 3469   0.491   1.133   4.430 -1.2601 -1.0489 -0.1687
  759SOL     OW 3470   7.368   2.844   0.726 -0.1788  0.1046  0.4140
  759SOL    HW1 3471   7.376   2.927   0.774  1.1761  0.6998 -0.7707
  759SOL    HW2 3472   7.364   2.870   0.634 -2.2070 -1.0389  0.1344
  760SOL     OW 3473   2.220   2.635   0.321 -0.0656  0.6692  0.1820
  760SOL    HW1 3474   2.229   2.720   0.278  1.2590  0.6211  0.3294
  760SOL    HW2 3475   2.263   2.573   0.262  2.2336  0.6777  1.7101
  761SOL     OW 3476   3.586   0.106   2.137  0.4609  0.6584 -0.5308
  761SOL    HW1 3477   3.640   0.100   2.216  0.3025  0.7132 -0.4171
  761SOL    HW2 3478   3.549   0.018   2.126  0.4823  0.6510 -0.5417
  762SOL     OW 3479   3.583   6.411   2.722 -0.5915  0.2396 -0.3167
  762SOL    HW1 3480   3.498   6.367   2.720 -0.6110  0.1830  1.1671
  762SOL    HW2 3481   3.645   6.343   2.745 -0.7608  1.0508  3.1478
  763SOL     OW 3482   7.644   3.183   5.942 -0.0576  0.4138  0.0575
  763SOL    HW1 3483   7.591   3.236   6.000 -1.3309 -0.2407 -0.4719
  763SOL    HW2 3484   7.679   3.244   5.877  1.4132  1.1569  1.4769
  764SOL     OW 3485   6.783   0.850   4.084  0.8855  0.1216  0.0429
  764SOL    HW1 3486   6.875   0.870   4.065  0.7716  0.1942 -0.4407
  764SOL    HW2 3487   6.750   0.811   4.003  1.1059 -2.0816  0.9404
  765SOL     OW 3488   0.750   0.721   4.072  0.0014  0.0739  0.0312
  765SOL    HW1 3489   0.719   0.661   4.004  0.8333  0.6931 -0.9103
  765SOL    HW2 3490   0.768   0.664   4.147  0.4267 -0.8143 -0.7269
  766SOL     OW 3491   4.853   4.176   2.740  0.4071 -0.2303  0.1948
  766SOL    HW1 3492   4.770   4.220   2.762  0.1820 -0.3040 -0.4930
  766SOL    HW2 3493   4.919   4.245   2.747  0.0352  0.2633 -1.0185
  767SOL     OW 3494   7.452   8.208   5.832  0.0509 -0.0829  0.1219
  767SOL    HW1 3495   7.493   8.254   5.905  1.2744 -1.1573  0.1428
  767SOL    HW2 3496   7.525   8.179   5.778 -0.8452  1.5197 -2.0964
  768SOL     OW 3497   8.287   5.352   6.230  0.2672 -0.7921  0.2416
  768SOL    HW1 3498   8.324   5.430   6.271  0.4876 -0.7359 -0.0649
  768SOL    HW2 3499   8.226   5.385   6.164 -1.2912 -0.8749  1.5748
  769SOL     OW 3500   5.019   1.941   2.425 -0.1222 -0.1983  0.2668
  769SOL    HW1 3501   5.038   1.865   2.369  2.4000  1.5322 -1.4523
  769SOL    HW2 3502   4.939   1.979   2.388  1.0591  0.4564 -1.7918
  770SOL     OW 3503   7.575   6.258   2.924  0.0557 -0.1845  0.4094
  770SOL    HW1 3504   7.549   6.262   3.015  0.2347  0.6460  0.4357
  770SOL    HW2 3505   7.669   6.242   2.926  0.4116  1.6489  0.4380
  771SOL     OW 3506   6.817   5.869   2.145  0.0032  0.2025  0.1156
  771SOL    HW1 3507   6.818   5.928   2.070 -0.3268 -0.4427 -0.4081
  771SOL    HW2 3508   6.745   5.809   2.127  1.2403 -1.2810 -0.0799
  772SOL     OW 3509   0.083   8.045   6.523 -0.4369 -0.5976 -0.2410
  772SOL    HW1 3510   0.033   8.089   6.592 -0.2092  0.8412 -0.9353
  772SOL    HW2 3511   0.090   7.954   6.552 -1.5083 -0.3301  0.9543
  773SOL     OW 3512   0.757   4.786   3.437 -0.1089  0.2452  0.0194
  773SOL    HW1 3513   0.732   4.695   3.419  1.1870 -0.2470  0.6150
  773SOL    HW2 3514   0.714   4.836   3.367  0.0399 -0.9507 -0.9761
  774SOL     OW 3515   7.955   7.126   2.669 -0.1857  0.2673 -0.3367
  774SOL    HW1 3516   7.946   7.075   2.588  1.6385 -0.6764 -0.0044
  774SOL    HW2 3517   7.955   7.060   2.738  1.2889  0.7873  0.1848
  775SOL     OW 3518   6.452   4.829   0.340 -0.1730  0.1113 -0.5300
  775SOL    HW1 3519   6.429   4.904   0.284 -2.4863 -0.6096 -0.6778
  775SOL    HW2 3520   6.381   4.825   0.404  0.9811 -0.7648  0.7390
  776SOL     OW 3521   7.251   0.507   3.620  0.0476 -0.1429 -0.3330
  776SOL    HW1 3522   7.277   0.580   3.677 -0.0306 -1.1951  1.1117
  776SOL    HW2 3523   7.165   0.532   3.587 -0.2975  0.1253  0.7137
  777SOL     OW 3524   1.914   2.742   1.678  0.3416  0.3003  0.4530
  777SOL    HW1 3525   1.865   2.762   1.599 -2.2784  0.6432  2.0303
  777SOL    HW2 3526   1.897   2.817   1.736  1.8870 -0.1012  1.4882
  778SOL     OW 3527   0.584   7.679   2.554 -0.7114 -0.6474  0.3111
  778SOL    HW1 3528   0.513   7.682   2.618 -2.2227 -2.4054 -1.1868
  778SOL    HW2 3529   0.661   7.655   2.606 -1.3577  0.3943  1.8311
  779SOL     OW 3530   1.121   2.255   3.975  0.1265 -0.0709  0.6918
  779SOL    HW1 3531   1.056   2.302   4.027 -0.5222 -0.8639  0.6172
  779SOL    HW2 3532   1.145   2.316   3.905 -0.8184  0.0975  0.4988
  780SOL     OW 3533   3.042   6.610   5.198  0.0265 -0.8330 -0.0122
  780SOL    HW1 3534   3.026   6.617   5.292  0.6987 -1.2320  0.1361
  780SOL    HW2 3535   3.042   6.516   5.180 -0.3615 -0.7544 -0.4637
  781SOL     OW 3536   1.284   4.175   7.595 -0.2047 -0.2877  0.0613
  781SOL    HW1 3537   1.248   4.105   7.541 -0.1138  2.1959 -3.5692
  781SOL    HW2 3538   1.211   4.202   7.651 -0.3083 -2.9521  1.3481
  782SOL     OW 3539   1.375   4.104   0.984 -0.1042  0.2187  0.2725
  782SOL    HW1 3540   1.326   4.042   1.039 -1.1104  0.9282  0.2076
  782SOL    HW2 3541   1.316   4.123   0.911  1.2205 -0.7181 -1.0937
  783SOL     OW 3542   5.220   8.200   5.443  0.6201  0.5033 -0.0716
  783SOL    HW1 3543   5.216   8.224   5.350 -1.1341 -0.8246 -0.3852
  783SOL    HW2 3544   5.241   8.107   5.443 -0.3444  0.2751  0.8324
  784SOL     OW 3545   1.148   2.364   7.208  0.4407  0.3130  0.1288
  784SOL    HW1 3546   1.178   2.310   7.282 -1.0346  1.0462  1.3308
  784SOL    HW2 3547   1.053   2.370   7.221  0.4632  2.5048 -0.4230
  785SOL     OW 3548   5.472   2.239   7.249  0.1406 -0.0752 -0.3156
  785SOL    HW1 3549   5.549   2.182   7.249 -0.3432 -0.7471 -0.8054
  785SOL    HW2 3550   5.398   2.180   7.236 -0.1936  0.8315 -3.7266
  786SOL     OW 3551   4.808   6.024   3.183 -0.2200 -0.2208 -0.4073
  786SOL    HW1 3552   4.794   5.929   3.187 -0.0614 -0.2344 -0.1887
  786SOL    HW2 3553   4.754   6.060   3.253 -0.3030 -0.1479 -0.5092
  787SOL     OW 3554   2.828   5.216   2.439  0.5179 -0.5510  0.0673
  787SOL    HW1 3555   2.903   5.159   2.459 -0.2280 -1.2262  1.0168
  787SOL    HW2 3556   2.824   5.277   2.513 -1.1788 -1.9215  1.1582
  788SOL     OW 3557   6.204   7.212   4.639  0.1709  0.3385  0.1871
  788SOL    HW1 3558   6.108   7.214   4.643  0.1838 -0.6505  2.4758
  788SOL    HW2 3559   6.223   7.183   4.549 -1.6757  0.2440 -0.2225
  789SOL     OW 3560   5.829   4.651   5.188 -0.7982 -0.1328 -0.1221
  789SOL    HW1 3561   5.835   4.738   5.227 -0.9303 -0.7166  1.2406
  789SOL    HW2 3562   5.919   4.618   5.188 -0.7054  0.1102 -0.9035
  790SOL     OW 3563   1.026   2.605   7.820 -0.3611  0.1534  0.2828
  790SOL    HW1 3564   0.943   2.612   7.774  1.1997  0.0153 -2.8486
  790SOL    HW2 3565   1.009   2.641   7.907 -2.9693  3.0173 -1.2011
  791SOL     OW 3566   4.171   2.471   7.392  0.1633  0.1223  0.0266
  791SOL    HW1 3567   4.089   2.433   7.360 -1.1484  1.0352  2.1310
  791SOL    HW2 3568   4.217   2.397   7.432 -0.3089 -0.1204  0.1357
  792SOL     OW 3569   6.361   1.285   3.765 -0.6451  0.0494  0.4723
  792SOL    HW1 3570   6.438   1.284   3.822 -1.1301 -2.4121  1.2014
  792SOL    HW2 3571   6.292   1.327   3.817  0.2927  3.1186 -0.5092
  793SOL     OW 3572   4.666   3.587   1.631  0.3430  0.4956 -0.4406
  793SOL    HW1 3573   4.606   3.590   1.556 -0.1785  3.0932 -0.0095
  793SOL    HW2 3574   4.746   3.548   1.596 -1.4863 -3.1542 -1.0250
  794SOL     OW 3575   3.081   1.020   5.490  0.5572 -0.2694 -0.3684
  794SOL    HW1 3576   3.099   1.023   5.396  1.1013 -1.2097 -0.3146
  794SOL    HW2 3577   3.134   1.091   5.526 -1.2182  1.4466 -0.9596
  795SOL     OW 3578   5.019   2.863   7.827  0.6682  0.1293 -0.8523
  795SOL    HW1 3579   4.976   2.910   7.898  1.1487 -1.3614  0.4667
  795SOL    HW2 3580   5.105   2.905   7.819  0.9997 -0.3417  0.1417
  796SOL     OW 3581   6.196   7.615   5.369  0.4857  0.2311 -0.3374
  796SOL    HW1 3582   6.281   7.589   5.406 -1.1235 -0.3133  3.5035
  796SOL    HW2 3583   6.156   7.533   5.341  0.2709  0.1560  0.1812
  797SOL     OW 3584   5.297   1.094   1.305  0.0296 -0.1514 -0.3912
  797SOL    HW1 3585   5.379   1.134   1.274 -0.2318  1.2770  0.6206
  797SOL    HW2 3586   5.312   1.000   1.297  1.6188  0.0853 -0.6297
  798SOL     OW 3587   2.677   0.693   2.004  0.0104  0.2296  0.1945
  798SOL    HW1 3588   2.727   0.720   2.080  1.4966 -1.4796 -0.1142
  798SOL    HW2 3589   2.739   0.695   1.932 -0.6626 -0.7555 -0.4429
  799SOL     OW 3590   0.603   5.797   6.286  0.3548  0.2658  0.5658
  799SOL    HW1 3591   0.632   5.709   6.313  0.7408  0.0678 -0.4744
  799SOL    HW2 3592   0.515   5.784   6.252  0.8624  0.0510 -0.7340
  800SOL     OW 3593   7.800   6.482   3.291 -0.1231 -0.2432  0.3719
  800SOL    HW1 3594   7.778   6.575   3.304 -1.3797 -0.5641  0.6712
  800SOL    HW2 3595   7.812   6.448   3.380 -0.9892 -0.6573  0.3441
  801SOL     OW 3596   8.204   7.172   5.493 -0.2630 -0.9477 -0.2099
  801SOL    HW1 3597   8.213   7.212   5.579  2.2271  1.9851 -1.6375
  801SOL    HW2 3598   8.287   7.125   5.479 -0.4439 -1.0215 -1.1560
  802SOL     OW 3599   5.868   6.676   8.543 -0.3217 -0.2780 -0.1728
  802SOL    HW1 3600   5.858   6.638   8.456  0.0143  0.2642 -0.4487
  802SOL    HW2 3601   5.806   6.749   8.545 -1.4721 -1.2374  0.6033
  803SOL     OW 3602   6.942   8.362   4.431  0.0711 -0.3032 -0.1045
  803SOL    HW1 3603   6.869   8.306   4.458  1.1228 -1.8933 -0.4225
  803SOL    HW2 3604   6.994   8.307   4.372 -0.2616  1.8890 -2.6149
  804SOL     OW 3605   6.748   5.019   3.110  0.4633  0.7851 -0.4939
  804SOL    HW1 3606   6.722   4.951   3.048 -1.0424  1.9715 -1.2386
  804SOL    HW2 3607   6.832   4.988   3.146 -0.7598 -2.0667  0.1970
  805SOL     OW 3608   7.013   6.353   2.006  0.3093  0.2296  0.0842
  805SOL    HW1 3609   7.084   6.416   2.000 -0.0438  0.4923 -1.8812
  805SOL    HW2 3610   7.048   6.273   1.967 -0.5918  0.5047 -1.3549
  806SOL     OW 3611   1.961   4.043   2.522  0.0567 -0.3520 -0.0686
  806SOL    HW1 3612   1.965   4.072   2.613 -2.3438 -0.6222  0.1685
  806SOL    HW2 3613   2.019   3.967   2.518 -0.2021 -0.6376  1.3382
  807SOL     OW 3614   5.335   5.213   0.240 -0.1986 -0.1601 -0.3974
  807SOL    HW1 3615   5.406   5.245   0.185  0.8027 -0.5226  0.6569
  807SOL    HW2 3616   5.259   5.265   0.214  0.1960 -0.4333 -2.2357
  808SOL     OW 3617   3.009   3.841   2.426 -0.1814 -0.7700  0.8099
  808SOL    HW1 3618   2.917   3.814   2.421 -0.5385  0.2680  1.3759
  808SOL    HW2 3619   3.029   3.841   2.520 -0.1820  0.8000  0.8312
  809SOL     OW 3620   4.393   4.410   2.013 -0.5036  0.2876 -0.2582
  809SOL    HW1 3621   4.384   4.319   1.983  3.3272 -0.6949  1.0250
  809SOL    HW2 3622   4.328   4.418   2.082 -1.0069 -1.4432 -0.4695
  810SOL     OW 3623   6.078   5.294   3.129 -0.0305  0.0016  0.7011
  810SOL    HW1 3624   6.161   5.260   3.163  0.0026 -1.2225 -0.5468
  810SOL    HW2 3625   6.019   5.219   3.129 -0.3111  0.1868 -1.0116
  811SOL     OW 3626   5.683   5.617   1.573 -0.3500  0.4803  0.3363
  811SOL    HW1 3627   5.620   5.646   1.506 -0.5794  1.3023  0.8905
  811SOL    HW2 3628   5.628   5.586   1.645 -0.1422  1.4834  0.9445
  812SOL     OW 3629   1.565   4.232   7.637  0.6054  0.1936 -0.5543
  812SOL    HW1 3630   1.475   4.202   7.622  0.2460  0.9843 -0.0657
  812SOL    HW2 3631   1.612   4.207   7.558  0.0621 -0.6384 -0.6261
  813SOL     OW 3632   0.321   0.534   0.326  0.0393  0.7054 -0.4617
  813SOL    HW1 3633   0.317   0.439   0.317  0.4249  0.7625 -1.3575
  813SOL    HW2 3634   0.265   0.554   0.401 -0.7656 -0.1477 -0.8221
  814SOL     OW 3635   1.135   5.839   0.794  0.1152 -0.0207  0.3817
  814SOL    HW1 3636   1.087   5.902   0.739  0.6996 -0.3490 -0.5217
  814SOL    HW2 3637   1.194   5.795   0.734  0.1756 -0.9896  1.1350
  815SOL     OW 3638   3.564   3.991   2.635  0.2479  0.0514 -0.2244
  815SOL    HW1 3639   3.549   3.934   2.560 -0.1338 -0.5129  0.2709
  815SOL    HW2 3640   3.619   3.939   2.694 -2.7720 -1.1582  1.7316
  816SOL     OW 3641   2.305   4.906   4.088 -0.2042  0.1548  0.2708
  816SOL    HW1 3642   2.276   4.997   4.098  2.1735  1.0956 -0.7051
  816SOL    HW2 3643   2.231   4.862   4.045 -1.0140  1.8654 -0.1617
  817SOL     OW 3644   6.350   5.438   6.377  0.3806  0.5642 -0.0128
  817SOL    HW1 3645   6.420   5.489   6.335  1.2215  1.0980  1.9006
  817SOL    HW2 3646   6.379   5.429   6.468 -1.5497 -0.1392  0.5823
  818SOL     OW 3647   3.894   6.206   5.005  0.5781 -0.3390  0.1334
  818SOL    HW1 3648   3.806   6.244   5.005  0.5390 -0.3591  1.5750
  818SOL    HW2 3649   3.952   6.277   4.978  0.0811 -0.4816 -1.3977
  819SOL     OW 3650   4.685   8.320   0.267  0.1844 -0.1930  0.3704
  819SOL    HW1 3651   4.590   8.331   0.264 -0.0107 -1.5543  0.9490
  819SOL    HW2 3652   4.715   8.350   0.181 -0.4236  2.9300  1.1167
  820SOL     OW 3653   5.116   6.864   6.411  0.3920  0.5782  0.0724
  820SOL    HW1 3654   5.169   6.795   6.451 -2.2152 -0.7368  1.5010
  820SOL    HW2 3655   5.124   6.938   6.471  2.3682  1.2644 -0.9344
  821SOL     OW 3656   5.930   8.435   2.697  0.0669 -0.0626  0.1320
  821SOL    HW1 3657   5.934   8.396   2.609  1.7213  2.4323 -1.0050
  821SOL    HW2 3658   5.857   8.497   2.693 -0.6476 -0.8175  0.9665
  822SOL     OW 3659   1.581   1.729   6.616  0.4857  0.2121 -0.9014
  822SOL    HW1 3660   1.598   1.727   6.522 -1.7691  1.0991 -1.3752
  822SOL    HW2 3661   1.644   1.794   6.650  1.1915  0.0169 -1.8022
  823SOL     OW 3662   5.580   3.253   7.151  0.5643  0.7299 -0.3982
  823SOL    HW1 3663   5.485   3.245   7.159  0.7218 -0.1477  0.6987
  823SOL    HW2 3664   5.593   3.283   7.061 -0.6816 -0.5456 -1.0393
  824SOL     OW 3665   3.880   4.091   6.913 -0.4916 -0.0838  0.1622
  824SOL    HW1 3666   3.932   4.010   6.914  1.0633  0.8394 -1.0824
  824SOL    HW2 3667   3.924   4.147   6.977  0.5625  0.9654 -1.4140
  825SOL     OW 3668   4.708   4.537   7.512 -0.0544  0.2328  0.7629
  825SOL    HW1 3669   4.799   4.538   7.483  0.9125 -3.2713  3.0695
  825SOL    HW2 3670   4.700   4.614   7.568  0.7808  1.7626 -1.1171
  826SOL     OW 3671   2.060   5.283   1.687  0.5662 -0.5449 -0.0528
  826SOL    HW1 3672   2.134   5.259   1.743  0.7567  1.4151  0.6147
  826SOL    HW2 3673   1.983   5.252   1.735  0.9111 -3.0142 -0.9724
  827SOL     OW 3674   6.907   0.406   3.213 -0.2926 -0.4792  0.1158
  827SOL    HW1 3675   6.934   0.445   3.296  0.7391 -0.2516 -0.3100
  827SOL    HW2 3676   6.929   0.313   3.222  2.6363 -0.0016 -0.9419
  828SOL     OW 3677   8.177   3.304   5.769  0.3607  0.4171 -0.0241
  828SOL    HW1 3678   8.156   3.267   5.683  0.8173 -0.4174  0.2125
  828SOL    HW2 3679   8.143   3.394   5.765  0.6433  0.4968 -1.1854
  829SOL     OW 3680   1.838   7.336   7.969  0.0382 -0.0953  0.6715
  829SOL    HW1 3681   1.812   7.428   7.975  0.4526  0.1587 -0.9797
  829SOL    HW2 3682   1.792   7.294   8.041 -0.8586  1.2502  0.9274
  830SOL     OW 3683   6.282   0.123   1.815 -0.1024  0.2104 -0.3540
  830SOL    HW1 3684   6.212   0.162   1.867  0.2907 -0.3396  0.6158
  830SOL    HW2 3685   6.238   0.080   1.742 -0.9041 -1.1422  0.8744
  831SOL     OW 3686   2.444   7.211   7.438 -0.1108 -0.3006  0.0699
  831SOL    HW1 3687   2.441   7.128   7.486  2.2733  0.1154  1.0751
  831SOL    HW2 3688   2.503   7.194   7.365  0.0812  0.3923  0.0581
  832SOL     OW 3689   1.092   1.493   8.163  0.0266  0.9005 -0.4618
  832SOL    HW1 3690   1.131   1.405   8.170  0.1747  0.9972 -0.0628
  832SOL    HW2 3691   1.155   1.550   8.206 -0.7060  1.0145  0.5056
  833SOL     OW 3692   0.963   6.891   5.931  0.4691 -0.2647  0.1255
  833SOL    HW1 3693   0.907   6.814   5.917  0.2740 -0.5831  2.2545
  833SOL    HW2 3694   0.953   6.943   5.851  0.4298 -2.3223 -1.2811
  834SOL     OW 3695   8.573   4.317   3.538 -0.1028  0.3311 -0.3406
  834SOL    HW1 3696   8.662   4.284   3.547 -0.1399  0.2040 -0.4378
  834SOL    HW2 3697   8.519   4.239   3.532 -0.3300  0.3961  0.7197
  835SOL     OW 3698   8.162   8.080   1.363 -0.3190  0.5861 -0.2600
  835SOL    HW1 3699   8.121   8.022   1.427  1.5509  1.6204  2.0006
  835SOL    HW2 3700   8.238   8.031   1.332 -0.5497  0.5728 -0.8254
  836SOL     OW 3701   0.780   1.799   7.068  0.2094 -0.3182 -0.4200
  836SOL    HW1 3702   0.779   1.876   7.011 -0.5156 -1.4128 -1.9736
  836SOL    HW2 3703   0.870   1.766   7.063  0.8909  1.1232  1.3181
  837SOL     OW 3704   6.933   2.563   4.719 -0.7080  0.0159  0.5788
  837SOL    HW1 3705   6.990   2.539   4.792  1.9068 -0.0970 -1.3372
  837SOL    HW2 3706   6.867   2.620   4.758  0.4017 -0.2359  3.0526
  838SOL     OW 3707   6.391   4.374   4.949 -0.1189  0.9152  0.4113
  838SOL    HW1 3708   6.382   4.303   4.886  0.2480  0.4188  0.9105
  838SOL    HW2 3709   6.327   4.440   4.920  0.2415  0.8301 -0.6449
  839SOL     OW 3710   1.144   6.304   1.422 -0.1627 -0.3923  0.5261
  839SOL    HW1 3711   1.179   6.318   1.334 -0.9527  2.7376  0.6085
  839SOL    HW2 3712   1.076   6.238   1.410  0.5215 -0.8772 -0.9956
  840SOL     OW 3713   2.125   3.967   3.349  0.3854 -0.3286  0.2930
  840SOL    HW1 3714   2.144   4.049   3.303  0.1218 -1.4904 -2.0094
  840SOL    HW2 3715   2.192   3.961   3.416 -0.5205  2.5277  1.6239
  841SOL     OW 3716   7.376   0.256   3.611  0.0833 -0.7593 -0.4098
  841SOL    HW1 3717   7.301   0.204   3.639 -1.6018 -0.0970 -3.2264
  841SOL    HW2 3718   7.345   0.346   3.613  1.1939 -0.3539 -0.5986
  842SOL     OW 3719   3.900   8.465   1.157 -0.5201 -0.1978 -0.0991
  842SOL    HW1 3720   3.838   8.393   1.168 -2.0551  1.1468  0.5139
  842SOL    HW2 3721   3.971   8.445   1.219 -1.6129 -0.4798  1.0939
  843SOL     OW 3722   4.546   4.693   2.433 -0.5453  0.0701  0.2852
  843SOL    HW1 3723   4.472   4.640   2.404  0.2979 -0.1567 -1.5524
  843SOL    HW2 3724   4.612   4.629   2.461 -0.9831  0.2700  1.8581
  844SOL     OW 3725   0.581   4.270   0.151 -0.2246 -0.0800  0.0508
  844SOL    HW1 3726   0.675   4.261   0.162 -0.1538  0.0806 -0.3974
  844SOL    HW2 3727   0.566   4.257   0.057 -0.9180 -2.4922  0.4272
  845SOL     OW 3728   0.452   2.050   2.279  0.2648  0.0417  0.0175
  845SOL    HW1 3729   0.528   1.997   2.300 -0.8816 -2.2702 -1.2963
  845SOL    HW2 3730   0.397   2.045   2.357  0.4174 -0.2230  0.1063
  846SOL     OW 3731   1.199   7.841   6.701  0.6326  0.4020 -0.3382
  846SOL    HW1 3732   1.209   7.934   6.682  1.0203  0.1394 -1.5149
  846SOL    HW2 3733   1.144   7.808   6.630  0.0948 -0.1815  0.3351
  847SOL     OW 3734   1.070   0.280   6.481 -0.1975 -0.4616  0.5738
  847SOL    HW1 3735   1.089   0.355   6.425 -1.8573 -0.7174 -0.3929
  847SOL    HW2 3736   1.150   0.228   6.479  1.1375  1.4178  1.5757
  848SOL     OW 3737   5.781   4.164   8.576  0.5009  0.0059  0.1731
  848SOL    HW1 3738   5.767   4.082   8.622 -0.5695 -0.8403 -1.5755
  848SOL    HW2 3739   5.822   4.221   8.642 -1.7648 -0.8071  2.4616
  849SOL     OW 3740   0.363   7.726   3.676 -0.3541  0.5374 -0.0059
  849SOL    HW1 3741   0.339   7.819   3.683 -2.7964 -0.0715  0.8793
  849SOL    HW2 3742   0.369   7.710   3.582  1.9845  1.9510 -0.1836
  850SOL     OW 3743   6.103   1.269   8.503 -0.8255  0.2969 -0.0990
  850SOL    HW1 3744   6.012   1.292   8.522 -1.4410 -2.1199  0.1466
  850SOL    HW2 3745   6.107   1.174   8.513  1.4022  0.1662 -1.4945
  851SOL     OW 3746   3.013   1.111   1.771  0.0478 -0.0322 -0.1499
  851SOL    HW1 3747   3.005   1.178   1.839 -0.9810 -0.2963  0.0135
  851SOL    HW2 3748   3.008   1.028   1.819  0.2085 -0.2185 -0.4562
  852SOL     OW 3749   6.568   1.396   6.395  0.0364 -0.1657  0.2417
  852SOL    HW1 3750   6.613   1.459   6.451  0.1208 -0.1514  0.1579
  852SOL    HW2 3751   6.637   1.337   6.364  0.6174  1.7368 -2.4826
  853SOL     OW 3752   5.987   2.905   2.576 -0.0549 -0.4999  0.5083
  853SOL    HW1 3753   5.983   2.865   2.489 -1.2957  1.5417 -0.4495
  853SOL    HW2 3754   5.909   2.873   2.621 -0.6222  0.1714  0.0288
  854SOL     OW 3755   6.546   6.241   1.075  0.1053 -0.6488  0.2430
  854SOL    HW1 3756   6.522   6.325   1.036  0.2078 -1.0739 -0.7669
  854SOL    HW2 3757   6.474   6.182   1.050 -0.1336 -0.7950  1.2218
  855SOL     OW 3758   2.894   5.269   1.188 -0.5974  0.5727  0.1196
  855SOL    HW1 3759   2.976   5.220   1.191 -0.0459  1.5032  0.4283
  855SOL    HW2 3760   2.826   5.201   1.184  0.1432 -0.2177  0.6880
  856SOL     OW 3761   3.190   5.760   8.215  0.3621 -0.1847 -0.1436
  856SOL    HW1 3762   3.274   5.806   8.204  0.0578  0.0972 -1.4865
  856SOL    HW2 3763   3.213   5.675   8.250  1.3409 -0.5062 -1.4797
  857SOL     OW 3764   6.154   2.573   7.205 -0.1328  0.2793 -0.3017
  857SOL    HW1 3765   6.081   2.541   7.258 -1.5180 -0.6061 -2.5603
  857SOL    HW2 3766   6.231   2.531   7.241 -1.5895 -4.1762 -1.7839
  858SOL     OW 3767   4.808   3.712   4.696  0.6364  0.0633 -0.0873
  858SOL    HW1 3768   4.752   3.738   4.622  0.5343  0.0342 -0.0194
  858SOL    HW2 3769   4.853   3.634   4.665  0.3553 -0.1341 -0.0030
  859SOL     OW 3770   6.031   0.514   6.917  0.5138  0.1781  0.1940
  859SOL    HW1 3771   5.993   0.448   6.859  0.5292  1.0249 -0.8117
  859SOL    HW2 3772   6.016   0.481   7.005  0.0314 -0.8931 -0.2819
  860SOL     OW 3773   0.815   2.678   3.243  0.3087  0.1318 -0.0729
  860SOL    HW1 3774   0.799   2.651   3.152  2.4031 -2.5980  0.2386
  860SOL    HW2 3775   0.903   2.716   3.242 -0.4188  1.9623  0.5507
  861SOL     OW 3776   7.699   2.557   3.350  0.0458  0.2672 -0.0610
  861SOL    HW1 3777   7.625   2.503   3.375  1.3635 -1.6468 -0.1081
  861SOL    HW2 3778   7.721   2.606   3.429 -1.5509  1.2986 -0.1947
  862SOL     OW 3779   5.144   1.181   8.233 -0.4074 -0.0588  0.6601
  862SOL    HW1 3780   5.063   1.188   8.283 -1.7214  0.3641 -1.3792
  862SOL    HW2 3781   5.120   1.128   8.157  0.1300  3.0693 -1.9397
  863SOL     OW 3782   1.857   2.730   3.738  0.3180  0.3034 -0.5279
  863SOL    HW1 3783   1.819   2.813   3.767  0.9446  0.2929  0.3683
  863SOL    HW2 3784   1.912   2.754   3.663  2.7348  1.2104  1.4077
  864SOL     OW 3785   4.024   5.059   4.940  0.1032  0.6704 -0.5728
  864SOL    HW1 3786   4.027   5.147   4.979  0.3337 -0.0569  1.1120
  864SOL    HW2 3787   4.113   5.026   4.949 -0.1607 -0.0346 -0.4801
  865SOL     OW 3788   5.810   5.791   8.124 -0.1796 -0.0936 -0.4419
  865SOL    HW1 3789   5.715   5.805   8.130 -0.0219  0.6805  0.4695
  865SOL    HW2 3790   5.845   5.876   8.099  0.3918 -0.0418  0.5178
  866SOL     OW 3791   5.128   4.925   4.618 -0.4073  0.5131 -0.7957
  866SOL    HW1 3792   5.116   4.831   4.601  0.7425  0.2528 -0.2642
  866SOL    HW2 3793   5.218   4.943   4.590  0.0940  0.9923  1.0087
  867SOL     OW 3794   2.700   5.040   1.909 -0.7372 -0.4893 -0.0574
  867SOL    HW1 3795   2.792   5.042   1.884 -0.9483 -2.1903 -1.1593
  867SOL    HW2 3796   2.683   5.126   1.946  1.6673 -0.6152  1.6000
  868SOL     OW 3797   8.539   6.345   1.951 -0.4632  0.4707 -0.3201
  868SOL    HW1 3798   8.546   6.319   2.042 -1.6224 -2.0523 -0.8696
  868SOL    HW2 3799   8.458   6.397   1.947 -1.7108 -1.3652 -0.2292
  869SOL     OW 3800   3.389   2.551   3.968 -0.3701 -0.2075 -0.4467
  869SOL    HW1 3801   3.477   2.587   3.954 -0.4407 -0.1700 -0.8150
  869SOL    HW2 3802   3.336   2.591   3.899 -1.1002  1.1984  0.8579
  870SOL     OW 3803   1.126   1.970   5.697  0.0149 -0.2181 -0.3085
  870SOL    HW1 3804   1.151   1.913   5.624 -0.3430 -0.8298  0.0355
  870SOL    HW2 3805   1.035   1.992   5.679 -0.1360 -0.5360  0.0509
  871SOL     OW 3806   0.317   2.481   3.382  0.1721  0.4411 -0.4862
  871SOL    HW1 3807   0.369   2.414   3.426 -2.1998 -0.7336  0.7232
  871SOL    HW2 3808   0.306   2.549   3.449  0.4766  0.8667 -0.8662
  872SOL     OW 3809   4.028   4.508   0.656  0.1709 -0.1526 -0.1606
  872SOL    HW1 3810   4.104   4.464   0.695 -0.1457  1.0397  1.9662
  872SOL    HW2 3811   4.048   4.511   0.562  2.5939 -0.1739  0.2819
  873SOL     OW 3812   1.104   3.714   6.860  0.3357 -0.1563  0.0471
  873SOL    HW1 3813   1.103   3.785   6.795 -0.9465 -0.3758 -0.2174
  873SOL    HW2 3814   1.067   3.753   6.939 -2.0969 -0.9269 -0.6209
  874SOL     OW 3815   1.206   2.883   3.592 -0.1219 -0.0802  0.1489
  874SOL    HW1 3816   1.173   2.815   3.650  0.4320 -1.6044 -1.2480
  874SOL    HW2 3817   1.284   2.845   3.552 -1.0290  0.4724 -2.3540
  875SOL     OW 3818   5.577   6.068   1.189  0.8318  0.3551 -0.2239
  875SOL    HW1 3819   5.492   6.064   1.232 -0.2880  0.6224 -2.2738
  875SOL    HW2 3820   5.629   6.001   1.233  0.2008  1.3735  2.2609
  876SOL     OW 3821   6.491   7.780   2.190 -0.1819  0.6105 -0.6107
  876SOL    HW1 3822   6.548   7.796   2.115 -1.1013  1.2087 -1.2023
  876SOL    HW2 3823   6.547   7.734   2.253  0.8862  0.9867 -1.2500
  877SOL     OW 3824   1.372   2.722   8.373 -0.1597  0.1700  0.2737
  877SOL    HW1 3825   1.420   2.639   8.374  0.9530  0.7973 -0.0499
  877SOL    HW2 3826   1.280   2.696   8.380 -0.0165 -1.2183 -2.0418
  878SOL     OW 3827   4.023   6.844   5.139 -0.4011  0.0295  0.0656
  878SOL    HW1 3828   3.986   6.928   5.111 -0.2989  0.6117  1.5800
  878SOL    HW2 3829   4.117   6.862   5.149 -0.5359  0.0927  1.4994
  879SOL     OW 3830   0.410   5.701   4.280 -0.2624 -0.8674 -1.1033
  879SOL    HW1 3831   0.371   5.778   4.240  0.5287  0.4823  0.6085
  879SOL    HW2 3832   0.362   5.689   4.362 -0.1336 -1.9873 -1.1705
  880SOL     OW 3833   7.878   5.008   3.690 -0.2520  0.0013 -0.3336
  880SOL    HW1 3834   7.814   4.981   3.755 -1.4504  2.3420 -0.4434
  880SOL    HW2 3835   7.955   4.955   3.709 -0.1310  1.2992  3.7139
  881SOL     OW 3836   1.949   2.407   0.800 -0.7921  0.3391  0.2952
  881SOL    HW1 3837   2.028   2.438   0.844 -0.9445  2.8330 -1.0573
  881SOL    HW2 3838   1.970   2.317   0.774  1.1659  0.5621  0.9891
  882SOL     OW 3839   2.072   0.770   1.780  0.0397 -0.5286 -0.5671
  882SOL    HW1 3840   2.132   0.842   1.762  2.3126 -2.5158 -1.4394
  882SOL    HW2 3841   2.022   0.799   1.856  2.7183  0.9647  0.7715
  883SOL     OW 3842   4.110   3.215   7.589 -0.3028 -0.3442 -0.1937
  883SOL    HW1 3843   4.180   3.156   7.562  0.2310  0.5203 -0.7422
  883SOL    HW2 3844   4.039   3.198   7.527  0.5980  1.0107 -1.6891
  884SOL     OW 3845   4.197   6.449   6.962  0.1781  0.1150 -1.0139
  884SOL    HW1 3846   4.233   6.385   7.023  1.4129 -0.0851 -1.9138
  884SOL    HW2 3847   4.122   6.404   6.923 -0.6215  0.2498  0.3243
  885SOL     OW 3848   8.344   7.945   5.157 -0.0215  0.1268  0.6266
  885SOL    HW1 3849   8.346   7.937   5.253 -3.0782 -1.7273  0.6356
  885SOL    HW2 3850   8.359   7.856   5.125 -2.0145  0.1262 -0.4605
  886SOL     OW 3851   2.190   6.503   7.823  0.2687  0.1047 -0.0121
  886SOL    HW1 3852   2.192   6.445   7.899  0.4162  0.4617  0.2551
  886SOL    HW2 3853   2.237   6.581   7.851  0.6736  0.0814 -0.5949
  887SOL     OW 3854   7.153   8.488   5.020  0.2023  0.0185  0.8917
  887SOL    HW1 3855   7.105   8.469   4.939  1.1441  0.2801  0.2618
  887SOL    HW2 3856   7.227   8.429   5.019  0.3505  0.1908  1.4505
  888SOL     OW 3857   3.614   6.842   8.544 -0.1936  0.3633  0.8539
  888SOL    HW1 3858   3.630   6.895   8.622 -0.5667 -0.2317  1.3447
  888SOL    HW2 3859   3.653   6.757   8.565  0.4409  0.4452  0.0606
  889SOL     OW 3860   2.053   4.942   6.332 -0.5386  0.3948 -0.1693
  889SOL    HW1 3861   1.981   4.986   6.377 -0.0914  0.4308  0.5359
  889SOL    HW2 3862   2.011   4.878   6.275 -1.1132  0.0095  0.6630
  890SOL     OW 3863   1.084   3.486   5.537  0.5497 -0.1416 -0.3163
  890SOL    HW1 3864   0.996   3.510   5.569 -0.1241 -1.6216 -0.9817
  890SOL    HW2 3865   1.139   3.488   5.615 -0.0692  0.7514  0.1243
  891SOL     OW 3866   2.092   3.159   5.269  0.0835  0.0254 -0.2241
  891SOL    HW1 3867   2.114   3.084   5.325 -0.5054  0.7371  1.0183
  891SOL    HW2 3868   2.086   3.232   5.330 -0.3654  0.8828 -1.2735
  892SOL     OW 3869   8.545   8.302   6.504  0.8255 -0.1236 -0.3193
  892SOL    HW1 3870   8.489   8.329   6.431 -0.7354 -2.8809 -0.2683
  892SOL    HW2 3871   8.619   8.256   6.463  0.1886 -1.2629 -0.2288
  893SOL     OW 3872   2.297   1.597   3.070  0.1224  0.2956 -0.1288
  893SOL    HW1 3873   2.365   1.661   3.091  0.3938  1.0643 -2.8826
  893SOL    HW2 3874   2.233   1.646   3.018 -0.5507 -1.2848 -0.8638
  894SOL     OW 3875   6.860   0.005   3.619  0.3904 -0.1470 -0.2774
  894SOL    HW1 3876   6.835   0.026   3.528  1.6509 -0.6530 -0.7507
  894SOL    HW2 3877   6.780  -0.030   3.657  0.2918 -1.6422 -1.7399
  895SOL     OW 3878   0.330   8.294   7.326  0.1293 -0.2981 -0.7805
  895SOL    HW1 3879   0.271   8.250   7.264  0.6132 -2.3585  0.1122
  895SOL    HW2 3880   0.273   8.350   7.378 -0.5091  0.3000 -2.0915
  896SOL     OW 3881   3.229   2.092   0.013  0.2277 -0.0060 -0.2707
  896SOL    HW1 3882   3.254   2.000   0.012  1.0802  0.1915  1.0303
  896SOL    HW2 3883   3.222   2.115   0.106 -1.4983  0.8507 -0.5620
  897SOL     OW 3884   4.222   3.456   5.265 -0.2792 -0.7438  0.7527
  897SOL    HW1 3885   4.242   3.406   5.344  0.5418  1.3164  1.9042
  897SOL    HW2 3886   4.137   3.496   5.282  0.5171  0.8257  1.2280
  898SOL     OW 3887   1.099   7.110   3.257 -0.4535  0.5737  0.0009
  898SOL    HW1 3888   1.059   7.161   3.328 -1.4714  0.3434 -0.3808
  898SOL    HW2 3889   1.178   7.158   3.235  0.9367 -0.3689  2.5539
  899SOL     OW 3890   2.548   4.673   3.579 -0.3293  0.0364 -0.3913
  899SOL    HW1 3891   2.527   4.605   3.515  0.9453 -0.8305  0.0883
  899SOL    HW2 3892   2.505   4.644   3.660  0.5493 -0.4475 -0.0776
  900SOL     OW 3893   3.351   4.014   4.167 -0.3520  0.2301 -0.7100
  900SOL    HW1 3894   3.291   3.979   4.101 -0.2573 -0.3749 -0.4860
  900SOL    HW2 3895   3.320   4.103   4.184 -1.7632 -0.3838  0.0862
  901SOL     OW 3896   0.131   5.802   7.257 -0.5698  0.3142 -0.3512
  901SOL    HW1 3897   0.175   5.804   7.342 -2.3158  2.2970  0.5829
  901SOL    HW2 3898   0.060   5.740   7.268  0.3660 -0.9322 -1.0491
  902SOL     OW 3899   2.316   2.379   4.751  0.7251  0.0764  0.0722
  902SOL    HW1 3900   2.382   2.337   4.695 -0.1548  0.2989 -1.1614
  902SOL    HW2 3901   2.238   2.324   4.742 -0.2666  1.5797 -1.0984
  903SOL     OW 3902   1.613   8.129   8.044 -0.1364  0.3836 -0.1097
  903SOL    HW1 3903   1.628   8.221   8.023 -0.5376  0.6390  0.6776
  903SOL    HW2 3904   1.518   8.118   8.038 -0.0824 -0.0041 -0.2979
  904SOL     OW 3905   3.642   5.359   1.789 -0.6487  0.2502 -0.1687
  904SOL    HW1 3906   3.722   5.380   1.836 -1.5177  2.5150  0.4688
  904SOL    HW2 3907   3.670   5.310   1.712  1.3266  0.9556  0.0582
  905SOL     OW 3908   1.225   6.580   3.196 -0.2196 -0.2886  0.4882
  905SOL    HW1 3909   1.281   6.616   3.264  0.8934  1.5633 -1.3035
  905SOL    HW2 3910   1.175   6.654   3.163  0.0089 -0.8919 -1.3628
  906SOL     OW 3911   1.608   1.094   2.727 -0.5543  0.2696  0.1949
  906SOL    HW1 3912   1.600   1.018   2.670  1.8277 -0.4241  0.6719
  906SOL    HW2 3913   1.590   1.169   2.670 -2.2129 -0.5632 -0.4553
  907SOL     OW 3914   1.041   1.319   8.534  0.0549 -0.6244 -0.3520
  907SOL    HW1 3915   1.060   1.279   8.619 -0.3111 -0.4818 -0.2022
  907SOL    HW2 3916   0.966   1.271   8.501 -0.6234  0.1571 -0.0059
  908SOL     OW 3917   7.781   0.554   2.385  0.1764  0.2897  0.7180
  908SOL    HW1 3918   7.821   0.594   2.308 -0.1203  0.1625  0.4933
  908SOL    HW2 3919   7.808   0.462   2.381 -0.8146  0.0043  0.0932
  909SOL     OW 3920   0.840   0.042   2.741  0.1051  0.3190 -0.0066
  909SOL    HW1 3921   0.814   0.037   2.833  0.3913 -0.3929  0.0425
  909SOL    HW2 3922   0.759   0.028   2.692  0.1067 -0.2372  0.1413
  910SOL     OW 3923   3.564   7.749   7.684 -0.3976  0.8282  0.2933
  910SOL    HW1 3924   3.612   7.699   7.617 -0.8673  0.7850 -0.0176
  910SOL    HW2 3925   3.484   7.776   7.639  0.2165  2.5703  0.1910
  911SOL     OW 3926   1.653   7.195   5.086  0.0071  0.2980 -0.2712
  911SOL    HW1 3927   1.568   7.156   5.108  0.2709 -0.5113 -0.6602
  911SOL    HW2 3928   1.640   7.289   5.101 -0.2572 -0.0398  1.9670
  912SOL     OW 3929   8.306   7.116   3.463 -0.5862  0.0041 -0.0591
  912SOL    HW1 3930   8.222   7.148   3.496 -1.0159 -1.6925  0.6089
  912SOL    HW2 3931   8.295   7.113   3.368 -0.7093  1.2660 -0.0998
  913SOL     OW 3932   3.863   1.754   6.763  0.5383  0.2227 -0.3070
  913SOL    HW1 3933   3.921   1.816   6.807 -0.6159  0.4180  0.9821
  913SOL    HW2 3934   3.863   1.677   6.819 -1.6189  0.7879  0.5647
  914SOL     OW 3935   3.739   6.839   3.744 -0.1638 -0.5190 -0.0965
  914SOL    HW1 3936   3.691   6.772   3.695 -0.9549 -0.0758  0.0606
  914SOL    HW2 3937   3.827   6.802   3.754  0.3370 -0.2236 -2.7000
  915SOL     OW 3938   3.360   3.421   6.088 -0.9890  0.3908 -0.0185
  915SOL    HW1 3939   3.399   3.428   6.001 -0.4394 -0.7557  0.1144
  915SOL    HW2 3940   3.317   3.505   6.102 -0.7042  0.7540 -1.2127
  916SOL     OW 3941   8.173   7.694   3.886 -0.3908  0.3628  0.3212
  916SOL    HW1 3942   8.186   7.766   3.824 -0.4108 -0.1942 -0.3322
  916SOL    HW2 3943   8.177   7.737   3.972  0.5649  1.0104 -0.0177
  917SOL     OW 3944   1.903   4.998   5.006 -0.1578  0.0490 -0.2821
  917SOL    HW1 3945   1.868   4.933   4.945  0.2534 -1.1417  0.6969
  917SOL    HW2 3946   1.996   4.975   5.014  0.4363  1.9120 -1.3132
  918SOL     OW 3947   3.339   2.870   4.303  0.1818  0.8706 -0.0167
  918SOL    HW1 3948   3.420   2.821   4.292  0.1552  1.0399 -1.0137
  918SOL    HW2 3949   3.306   2.843   4.389  0.3334 -0.6042 -0.3959
  919SOL     OW 3950   0.302   6.099   4.629 -0.3945 -0.1581  0.3827
  919SOL    HW1 3951   0.245   6.088   4.705 -1.7044 -0.0824 -0.5668
  919SOL    HW2 3952   0.255   6.058   4.557 -0.2343  1.7409 -0.8725
  920SOL     OW 3953   4.400   5.963   1.543 -0.3354  0.0137  0.3474
  920SOL    HW1 3954   4.464   5.896   1.517  0.5290  1.1919 -0.6559
  920SOL    HW2 3955   4.445   6.017   1.607 -0.8541 -0.0300  0.7600
  921SOL     OW 3956   1.791   4.384   0.460 -0.0283  0.1051 -0.0848
  921SOL    HW1 3957   1.856   4.454   0.474  0.7152 -0.8910  1.8020
  921SOL    HW2 3958   1.827   4.332   0.388  0.8176  0.0975  0.3312
  922SOL     OW 3959   6.378   2.295   4.606  0.1698  0.1889 -0.0394
  922SOL    HW1 3960   6.314   2.358   4.639  0.5549  0.6498 -0.1652
  922SOL    HW2 3961   6.461   2.342   4.607  0.4811 -0.3453 -0.0505
  923SOL     OW 3962   5.952   5.457   0.113 -0.2930  0.1848 -0.4836
  923SOL    HW1 3963   5.968   5.363   0.121 -0.0845  0.2986  0.6687
  923SOL    HW2 3964   5.912   5.468   0.027 -1.3498 -1.0933 -0.1810
  924SOL     OW 3965   7.494   5.900   8.088 -0.2044 -0.1204  0.6256
  924SOL    HW1 3966   7.449   5.977   8.122  1.0898  1.0554 -0.2014
  924SOL    HW2 3967   7.532   5.930   8.005  1.7453 -1.1403  1.0905
  925SOL     OW 3968   7.911   4.978   8.245  0.3957 -0.1755  0.0443
  925SOL    HW1 3969   7.870   5.043   8.302 -0.9847  0.6502 -1.7671
  925SOL    HW2 3970   7.913   4.898   8.297  1.0476  1.0052  1.9176
  926SOL     OW 3971   8.287   1.097   5.037  0.6097  0.2652  0.2578
  926SOL    HW1 3972   8.271   1.022   4.980  0.5708 -0.8416  1.6752
  926SOL    HW2 3973   8.225   1.164   5.007  0.6026 -0.2704 -0.9824
  927SOL     OW 3974   7.345   2.952   1.636 -0.2079 -0.2116 -0.0449
  927SOL    HW1 3975   7.257   2.921   1.617 -0.5771  0.8587 -0.1730
  927SOL    HW2 3976   7.335   3.008   1.713  0.4091 -0.3362  0.1331
  928SOL     OW 3977   4.115   0.404   1.889  0.1508 -0.4972 -0.2872
  928SOL    HW1 3978   4.029   0.430   1.853  0.5324  1.3852  0.0558
  928SOL    HW2 3979   4.110   0.309   1.896 -2.5680 -0.3307  1.3466
  929SOL     OW 3980   3.632   4.054   7.220  0.2724 -0.2517  0.0165
  929SOL    HW1 3981   3.549   4.071   7.264 -0.9761 -1.6822 -1.6413
  929SOL    HW2 3982   3.643   4.128   7.160  0.2910  0.0155  0.3441
  930SOL     OW 3983   0.736   6.704   4.129  0.0876  0.0089  0.0115
  930SOL    HW1 3984   0.716   6.794   4.103 -1.1377 -0.3490 -0.3521
  930SOL    HW2 3985   0.688   6.649   4.067  1.2563 -0.9131 -0.1136
  931SOL     OW 3986   5.646   7.719   2.560  0.5655  0.3319  0.1362
  931SOL    HW1 3987   5.682   7.653   2.619  1.4306  1.0276  0.4020
  931SOL    HW2 3988   5.617   7.670   2.484  1.4338 -0.3254  0.2186
  932SOL     OW 3989   0.910   8.493   6.424  0.4482 -0.1942  0.0501
  932SOL    HW1 3990   0.945   8.551   6.492 -0.0648 -2.1756  2.1495
  932SOL    HW2 3991   0.831   8.538   6.394  0.9555  0.9694  0.3815
  933SOL     OW 3992   6.826   5.030   5.556 -0.1877 -0.3031 -0.2703
  933SOL    HW1 3993   6.910   4.992   5.531 -0.3296  0.0530 -1.3472
  933SOL    HW2 3994   6.774   4.956   5.588 -0.2239 -0.9175 -1.7017
  934SOL     OW 3995   0.575   3.743   3.134  0.1105 -0.3670 -0.0110
  934SOL    HW1 3996   0.590   3.831   3.170 -1.0759 -0.1283 -0.0557
  934SOL    HW2 3997   0.615   3.684   3.198 -1.6937  0.0620  1.5839
  935SOL     OW 3998   1.229   5.234   3.425  0.1479  0.1543  0.4864
  935SOL    HW1 3999   1.314   5.200   3.452  1.3364  1.8431 -0.8921
  935SOL    HW2 4000   1.248   5.319   3.385 -2.3939  1.4537  1.7187
  936SOL     OW 4001   0.028   6.416   0.270 -0.0658 -0.1000 -0.0187
  936SOL    HW1 4002   0.046   6.386   0.359  0.4584 -2.1769 -0.7683
  936SOL    HW2 4003   0.087   6.365   0.215  0.2592  1.7806 -1.5147
  937SOL     OW 4004   8.123   7.476   2.250 -0.4538  0.6716 -0.0529
  937SOL    HW1 4005   8.098   7.414   2.181  0.6596 -0.1441  0.2427
  937SOL    HW2 4006   8.158   7.552   2.203  0.5558  0.0070 -0.4096
  938SOL     OW 4007   0.019   4.839   2.178 -0.1584  0.3274  0.1618
  938SOL    HW1 4008   0.102   4.825   2.223  0.1215  0.2749 -0.3599
  938SOL    HW2 4009   0.040   4.901   2.108 -0.3019 -0.5955 -0.7072
  939SOL     OW 4010   0.482   1.068   1.550  0.2657 -0.2246 -0.6491
  939SOL    HW1 4011   0.399   1.100   1.514 -0.1467 -0.2229  0.2750
  939SOL    HW2 4012   0.482   1.098   1.641  1.1557 -0.4693 -0.5554
  940SOL     OW 4013   7.173   3.598   4.554  0.5484  0.9075  0.4478
  940SOL    HW1 4014   7.184   3.538   4.629  0.6143 -0.3661 -0.5488
  940SOL    HW2 4015   7.078   3.604   4.542  0.5452 -0.9413 -0.9090
  941SOL     OW 4016   6.105   0.773   5.273 -0.1454 -0.2604 -0.1747
  941SOL    HW1 4017   6.050   0.701   5.241  0.2716 -0.7802  0.2575
  941SOL    HW2 4018   6.043   0.843   5.294 -0.7729 -1.2769  1.5109
  942SOL     OW 4019   1.837   1.212   5.977 -0.1773  0.5279 -0.4615
  942SOL    HW1 4020   1.871   1.129   6.008  0.4036  0.6863 -0.6589
  942SOL    HW2 4021   1.810   1.259   6.056  2.4093  1.4304 -0.0221
  943SOL     OW 4022   1.734   3.543   7.762  0.1444 -0.5502 -0.1816
  943SOL    HW1 4023   1.803   3.609   7.761 -2.0707  1.9178 -0.1617
  943SOL    HW2 4024   1.658   3.586   7.722 -2.0347 -2.3860  1.6665
  944SOL     OW 4025   1.632   0.743   0.744 -0.0672  0.1553 -0.1601
  944SOL    HW1 4026   1.559   0.687   0.716  0.4575 -0.2734 -0.7170
  944SOL    HW2 4027   1.600   0.787   0.822 -1.0477  0.2310 -0.5901
  945SOL     OW 4028   6.522   6.366   1.856 -0.2876 -0.7939 -0.4168
  945SOL    HW1 4029   6.455   6.373   1.923  0.3928 -0.8784  0.2922
  945SOL    HW2 4030   6.603   6.393   1.901 -0.1588  1.2431 -1.7571
  946SOL     OW 4031   1.045   7.760   7.086 -0.0912  0.0675  0.1962
  946SOL    HW1 4032   0.983   7.777   7.015  1.6445  1.7598 -1.0216
  946SOL    HW2 4033   1.002   7.795   7.164 -0.2980  2.2142 -0.8012
  947SOL     OW 4034   2.928   1.929   2.075  0.1743 -0.1062 -0.3392
  947SOL    HW1 4035   2.884   1.966   2.151  1.7791  0.0178  0.5959
  947SOL    HW2 4036   2.898   1.982   2.002 -0.4169  0.6300  0.4116
  948SOL     OW 4037   1.655   5.108   7.992 -0.2768  0.2430  0.3338
  948SOL    HW1 4038   1.690   5.056   7.920  2.1823  0.7444  1.0768
  948SOL    HW2 4039   1.674   5.057   8.071 -0.4682  0.9370  0.8403
  949SOL     OW 4040   3.992   5.280   0.730 -0.2097 -0.1087  0.0105
  949SOL    HW1 4041   4.004   5.201   0.783  2.0789  0.5621  0.6080
  949SOL    HW2 4042   3.972   5.248   0.642 -0.4172 -1.3311  0.4909
  950SOL     OW 4043   1.232   0.205   8.218 -0.3790 -0.0343  0.1910
  950SOL    HW1 4044   1.314   0.160   8.240 -0.3805  0.3339  0.9708
  950SOL    HW2 4045   1.236   0.287   8.267 -0.7746  0.4216 -0.5362
  951SOL     OW 4046   8.260   4.031   5.486  0.0786  0.4454  0.1604
  951SOL    HW1 4047   8.312   4.018   5.407  2.1282  1.9464  1.1613
  951SOL    HW2 4048   8.171   4.041   5.454  0.8557  1.1584 -2.0009
  952SOL     OW 4049   8.393   4.967   3.839  0.6291  0.3430 -0.3506
  952SOL    HW1 4050   8.412   4.884   3.796  0.5059 -0.5666  1.2837
  952SOL    HW2 4051   8.448   4.967   3.918  0.9258  1.9990 -0.5142
  953SOL     OW 4052   6.965   2.856   7.844  0.1117 -0.3553  0.5073
  953SOL    HW1 4053   6.998   2.791   7.782  1.0480  0.1104  0.4887
  953SOL    HW2 4054   6.923   2.804   7.913 -0.9772 -0.8735 -0.5153
  954SOL     OW 4055   7.967   3.316   5.009  0.0055  0.0773  0.0603
  954SOL    HW1 4056   7.984   3.375   4.936 -0.4440  0.4421  0.2519
  954SOL    HW2 4057   7.968   3.229   4.969  2.4024  0.0367  0.0549
  955SOL     OW 4058   1.403   2.106   8.506  0.6138  0.1080  0.2502
  955SOL    HW1 4059   1.426   2.030   8.453  1.4229 -0.4452  1.3694
  955SOL    HW2 4060   1.396   2.072   8.596 -1.8662  0.7801  0.4026
  956SOL     OW 4061   4.261   2.980   1.312 -0.6075  0.2161  0.0663
  956SOL    HW1 4062   4.337   2.922   1.316 -0.6447  0.1896  0.4933
  956SOL    HW2 4063   4.193   2.928   1.271 -0.3429  0.3013 -0.4951
  957SOL     OW 4064   0.567   1.640   5.495  0.3756  0.0679  0.7447
  957SOL    HW1 4065   0.492   1.652   5.436  1.4259  1.2678 -0.4238
  957SOL    HW2 4066   0.531   1.594   5.571 -1.2653 -0.5370 -0.3377
  958SOL     OW 4067   2.950   0.908   2.532  0.0145  0.2573 -0.1400
  958SOL    HW1 4068   2.995   0.825   2.515 -1.9346 -0.9909  0.4606
  958SOL    HW2 4069   2.948   0.915   2.628 -1.5455 -0.0171 -0.1364
  959SOL     OW 4070   1.776   4.329   6.178 -0.1186  0.1032  0.1194
  959SOL    HW1 4071   1.719   4.254   6.161  0.7662 -0.1999 -1.7035
  959SOL    HW2 4072   1.842   4.296   6.238 -0.5120 -0.2005  0.3890
  960SOL     OW 4073   5.291   7.192   6.777 -0.5550  0.0227  0.7152
  960SOL    HW1 4074   5.279   7.275   6.823 -0.4465 -0.1603  1.0743
  960SOL    HW2 4075   5.226   7.195   6.707 -0.5582  0.4070  0.7308
  961SOL     OW 4076   4.420   0.795   5.873 -0.5791  0.1191  0.0792
  961SOL    HW1 4077   4.393   0.817   5.784 -2.2319 -1.3798  0.1483
  961SOL    HW2 4078   4.457   0.876   5.908  1.3548  0.4014 -2.3592
  962SOL     OW 4079   4.013   8.349   7.237 -0.1709 -0.3452 -0.5326
  962SOL    HW1 4080   4.022   8.264   7.280 -0.0535 -0.0144  0.1096
  962SOL    HW2 4081   4.080   8.347   7.168  1.6928  0.2293  1.1558
  963SOL     OW 4082   8.131   2.103   3.741 -1.0791 -0.0968  0.2629
  963SOL    HW1 4083   8.108   2.195   3.728  0.0543  0.0727 -0.7267
  963SOL    HW2 4084   8.189   2.082   3.668  0.6421 -0.8914  1.7691
  964SOL     OW 4085   5.016   3.113   0.780  0.3457 -0.0090  0.3561
  964SOL    HW1 4086   4.964   3.193   0.771  0.1035 -0.3977 -2.2384
  964SOL    HW2 4087   5.026   3.080   0.691  3.7865 -0.7660  0.8866
  965SOL     OW 4088   7.209   3.812   0.049  0.0330 -0.0760 -0.0175
  965SOL    HW1 4089   7.271   3.842  -0.018 -0.0408  0.5835  0.1972
  965SOL    HW2 4090   7.207   3.883   0.113  1.3411 -1.4023  1.5518
  966SOL     OW 4091   0.742   7.778   2.148 -0.1044 -0.4940 -0.5007
  966SOL    HW1 4092   0.807   7.778   2.218 -1.9662 -0.4848  1.3304
  966SOL    HW2 4093   0.771   7.709   2.088  1.6816 -0.3281  0.1127
  967SOL     OW 4094   1.204   4.005   0.687 -0.4746  0.7096  0.1326
  967SOL    HW1 4095   1.109   3.997   0.677 -0.3776 -1.1849  0.3262
  967SOL    HW2 4096   1.226   4.088   0.645 -2.0913  0.7282 -0.7449
  968SOL     OW 4097   4.825   4.692   3.338 -0.6555  0.2940  0.5444
  968SOL    HW1 4098   4.906   4.744   3.339 -0.4976  0.1354 -1.0394
  968SOL    HW2 4099   4.788   4.708   3.251 -2.6592  0.8247  1.4353
  969SOL     OW 4100   5.567   8.272   0.895  0.4808 -0.2047 -0.2814
  969SOL    HW1 4101   5.536   8.223   0.971  0.3624  1.3331  0.7179
  969SOL    HW2 4102   5.602   8.353   0.932 -2.4003  2.0332 -2.0421
  970SOL     OW 4103   1.484   1.155   0.246  0.3150  0.3123 -0.0987
  970SOL    HW1 4104   1.529   1.154   0.162 -0.9380 -1.0183 -0.8040
  970SOL    HW2 4105   1.403   1.106   0.231 -0.6882  1.3585  1.4854
  971SOL     OW 4106   7.270   2.549   0.491 -0.0666 -0.6486  0.5112
  971SOL    HW1 4107   7.198   2.486   0.486  0.1342 -0.8379  0.0226
  971SOL    HW2 4108   7.227   2.634   0.490 -0.2260 -0.7138 -1.3280
  972SOL     OW 4109   2.438   2.450   3.410  0.2026  0.3674 -0.9193
  972SOL    HW1 4110   2.508   2.496   3.456 -0.0061  1.6680 -1.8612
  972SOL    HW2 4111   2.382   2.519   3.375 -0.6614 -0.6219 -1.5514
  973SOL     OW 4112   0.694   6.577   3.475  0.4660  0.0673  0.4020
  973SOL    HW1 4113   0.646   6.656   3.454 -1.1919 -1.0460 -0.2121
  973SOL    HW2 4114   0.769   6.607   3.526 -0.0788  2.0104  0.1365
  974SOL     OW 4115   6.960   4.746   2.681  0.5045 -0.8943  0.0826
  974SOL    HW1 4116   6.870   4.736   2.650  0.0106  0.0366  1.1342
  974SOL    HW2 4117   7.004   4.794   2.611  0.3823 -1.9636 -0.7436
  975SOL     OW 4118   3.756   6.355   2.389 -0.0990  0.9599 -0.1224
  975SOL    HW1 4119   3.686   6.325   2.331 -1.8934  2.2259  1.2644
  975SOL    HW2 4120   3.755   6.293   2.462 -0.9226  1.8543  0.6677
  976SOL     OW 4121   5.297   6.837   8.312  0.0233  0.1448  0.1438
  976SOL    HW1 4122   5.305   6.925   8.278  0.2487  0.0054 -0.1693
  976SOL    HW2 4123   5.217   6.802   8.273  0.1991  0.0399 -0.1310
  977SOL     OW 4124   7.673   1.761   8.354  0.4642 -0.1716  0.0442
  977SOL    HW1 4125   7.621   1.841   8.367  1.7028  0.7477 -0.5199
  977SOL    HW2 4126   7.674   1.719   8.440 -1.4648 -0.3894  0.0031
  978SOL     OW 4127   7.557   1.086   6.103 -0.5676  0.2267 -0.2526
  978SOL    HW1 4128   7.502   1.026   6.152  0.8613 -0.9980 -0.0649
  978SOL    HW2 4129   7.549   1.170   6.150 -0.8360 -0.3901  0.8449
  979SOL     OW 4130   4.957   3.916   4.807  0.0465  0.4137 -0.1022
  979SOL    HW1 4131   4.935   3.885   4.719 -3.8623  1.2631  0.3828
  979SOL    HW2 4132   4.970   3.836   4.858 -0.9253 -0.2243 -0.8005
  980SOL     OW 4133   5.077   3.582   7.373 -0.5289 -0.0985  0.1845
  980SOL    HW1 4134   5.000   3.575   7.429 -1.0020 -0.3746 -0.4784
  980SOL    HW2 4135   5.066   3.512   7.309 -0.6017  0.9058 -0.9430
  981SOL     OW 4136   4.460   7.745   3.546  0.5979  0.7605 -0.0181
  981SOL    HW1 4137   4.553   7.768   3.537  0.2971  1.1933 -3.0052
  981SOL    HW2 4138   4.430   7.731   3.456 -1.8420 -1.0888  0.9688
  982SOL     OW 4139   8.485   4.750   7.436 -0.1609 -0.5484  0.3502
  982SOL    HW1 4140   8.464   4.818   7.500 -0.5808 -0.6436  0.3196
  982SOL    HW2 4141   8.571   4.717   7.462 -0.1062 -0.2365  0.5628
  983SOL     OW 4142   2.302   6.818   3.061  0.3017 -0.0785 -0.2192
  983SOL    HW1 4143   2.207   6.824   3.046  0.2842 -0.8973 -0.5073
  983SOL    HW2 4144   2.326   6.903   3.098 -0.9233 -0.6215  1.9696
  984SOL     OW 4145   0.244   5.093   6.514  0.2650  0.2447  0.0011
  984SOL    HW1 4146   0.171   5.148   6.544 -0.2739  0.3839 -1.4476
  984SOL    HW2 4147   0.216   5.004   6.530 -0.0776  0.3107 -0.2289
  985SOL     OW 4148   1.211   6.468   5.397 -0.0363 -0.1161  0.1263
  985SOL    HW1 4149   1.227   6.375   5.384  2.4658  0.4063 -1.3024
  985SOL    HW2 4150   1.194   6.477   5.491 -0.4958 -1.9970  0.2696
  986SOL     OW 4151   0.351   1.155   5.219  0.3805 -0.1071 -0.0934
  986SOL    HW1 4152   0.311   1.095   5.156 -2.3525 -0.1689  1.5704
  986SOL    HW2 4153   0.402   1.099   5.277 -1.4744 -0.7924  0.9436
  987SOL     OW 4154   2.798   7.486   3.498  0.0017 -0.0181 -0.3944
  987SOL    HW1 4155   2.807   7.519   3.588  0.1242  0.9126 -0.7352
  987SOL    HW2 4156   2.839   7.400   3.500  2.1469  0.9365 -0.0987
  988SOL     OW 4157   1.186   1.238   7.818 -0.2078  0.6002  0.3838
  988SOL    HW1 4158   1.179   1.202   7.729 -0.1831  0.6041  0.3806
  988SOL    HW2 4159   1.118   1.306   7.821 -0.2292  0.5792  0.3780
  989SOL     OW 4160   1.686   0.216   5.470 -0.4136  0.1085  0.3919
  989SOL    HW1 4161   1.634   0.240   5.394 -1.0425 -0.4225  0.6433
  989SOL    HW2 4162   1.760   0.167   5.434 -1.4944 -1.4692  0.1986
  990SOL     OW 4163   6.943   0.718   7.095 -0.2845  0.3601  0.8388
  990SOL    HW1 4164   6.927   0.807   7.127 -1.1520  0.9204 -1.0386
  990SOL    HW2 4165   6.862   0.693   7.051 -0.2446 -1.5991  1.7590
  991SOL     OW 4166   5.439   5.909   4.092  0.1941  0.0195  0.1352
  991SOL    HW1 4167   5.527   5.914   4.054  1.2427 -0.3229  2.3399
  991SOL    HW2 4168   5.396   5.838   4.044  2.0997 -1.6443  0.7414
  992SOL     OW 4169   3.369   4.206   0.845 -0.2754  0.3585  0.7689
  992SOL    HW1 4170   3.430   4.272   0.810  0.6553  0.6919  2.8995
  992SOL    HW2 4171   3.287   4.223   0.798  0.8319  0.8617 -1.1037
  993SOL     OW 4172   3.958   4.288   6.439  0.1781  0.1764 -0.5544
  993SOL    HW1 4173   3.927   4.273   6.529 -1.3362  1.2596 -0.8498
  993SOL    HW2 4174   3.966   4.200   6.402 -0.9277 -0.2344  0.1120
  994SOL     OW 4175   6.858   6.393   5.851 -0.4483  0.3029 -0.2708
  994SOL    HW1 4176   6.770   6.424   5.827 -0.8446 -0.6994 -0.1483
  994SOL    HW2 4177   6.844   6.336   5.926  0.4815  1.2117  0.6295
  995SOL     OW 4178   0.284   1.313   1.476  0.0023 -0.5603  0.1627
  995SOL    HW1 4179   0.230   1.292   1.552 -1.3163  0.6939 -0.3788
  995SOL    HW2 4180   0.270   1.241   1.416  0.2723 -1.0729  0.7067
  996SOL     OW 4181   2.991   0.026   7.812  0.0130 -0.5525  0.0933
  996SOL    HW1 4182   3.079   0.018   7.777 -0.5335  1.4751 -1.9840
  996SOL    HW2 4183   2.996   0.098   7.875  0.1920 -1.6903  1.4236
  997SOL     OW 4184   1.112   8.586   6.236  0.1739 -0.3518  0.0525
  997SOL    HW1 4185   1.162   8.504   6.230 -1.1644 -1.2364  0.5078
  997SOL    HW2 4186   1.117   8.610   6.329  3.5077  2.0750 -0.5608
  998SOL     OW 4187   2.326   5.766   0.963 -0.5108  0.2495  0.1934
  998SOL    HW1 4188   2.267   5.835   0.931  2.0121  2.9313  0.8690
  998SOL    HW2 4189   2.391   5.756   0.893 -0.1908 -0.6303  0.6086
  999SOL     OW 4190   5.999   4.452   2.026  0.0403  0.2420 -0.4298
  999SOL    HW1 4191   5.932   4.457   2.093  0.4974 -0.2825  0.0683
  999SOL    HW2 4192   6.038   4.540   2.025  1.5814 -0.3718  1.6113
 1000SOL     OW 4193   4.495   6.824   0.955 -1.1176 -0.2234  0.2596
 1000SOL    HW1 4194   4.416   6.867   0.987 -0.7890  1.6140 -1.2558
 1000SOL    HW2 4195   4.568   6.873   0.993 -0.7345  0.5546 -1.4079
 1001SOL     OW 4196   2.551   8.587   0.564  0.0542  0.2882  0.1872
 1001SOL    HW1 4197   2.577   8.528   0.494 -0.4493 -0.9685  1.0140
 1001SOL    HW2 4198   2.627   8.589   0.623  1.6765  3.6687 -1.7436
 1002SOL     OW 4199   6.126   7.593   5.840  0.0940 -0.6051 -0.0078
 1002SOL    HW1 4200   6.092   7.601   5.751 -0.7988 -0.7120  0.3148
 1002SOL    HW2 4201   6.141   7.683   5.868 -0.0315 -0.5505 -0.1126
 1003SOL     OW 4202   6.480   7.447   5.139  0.8980 -0.3332 -0.6355
 1003SOL    HW1 4203   6.537   7.399   5.199  0.6413  2.8380  2.4758
 1003SOL    HW2 4204   6.511   7.538   5.144 -1.8246  0.8065 -2.0460
 1004SOL     OW 4205   6.084   5.755   7.132  0.2009  0.3404  0.0235
 1004SOL    HW1 4206   6.088   5.747   7.037  0.9907  1.7633 -0.0910
 1004SOL    HW2 4207   6.034   5.835   7.147 -2.2617 -1.2357  0.9115
 1005SOL     OW 4208   2.512   2.909   2.542  0.0881 -0.5534  0.1903
 1005SOL    HW1 4209   2.438   2.966   2.563  1.1075  2.3774 -3.2066
 1005SOL    HW2 4210   2.471   2.830   2.505 -1.4100  0.8046 -1.2086
 1006SOL     OW 4211   3.005   5.104   7.217 -0.0542  0.0182  0.4953
 1006SOL    HW1 4212   2.972   5.132   7.131  1.0470  1.1897  0.4162
 1006SOL    HW2 4213   2.932   5.058   7.257 -0.2449 -1.5697 -1.5129
 1007SOL     OW 4214   6.147   3.071   7.832 -0.0249  0.0342 -0.3539
 1007SOL    HW1 4215   6.191   3.016   7.767 -0.8280 -0.2141 -0.7009
 1007SOL    HW2 4216   6.081   3.014   7.871 -0.5588  0.6081 -0.3967
 1008SOL     OW 4217   8.518   5.170   3.486 -0.3436 -0.1285 -0.6930
 1008SOL    HW1 4218   8.562   5.223   3.419  0.1110 -0.3877 -0.6083
 1008SOL    HW2 4219   8.571   5.182   3.565 -0.3204 -0.5777 -0.6334
 1009SOL     OW 4220   8.103   0.452   5.042  0.4256  0.0197  0.6309
 1009SOL    HW1 4221   8.073   0.530   4.995  0.3583 -0.4540 -0.1337
 1009SOL    HW2 4222   8.034   0.387   5.026  1.8912 -1.1564 -1.3330
 1010SOL     OW 4223   1.677   1.768   5.560  0.0287  0.1644  0.3063
 1010SOL    HW1 4224   1.606   1.754   5.497  0.7726 -0.8916 -0.3163
 1010SOL    HW2 4225   1.687   1.863   5.563 -1.1744  0.3094  0.1339
 1011SOL     OW 4226   2.790   4.052   1.521 -0.7299  0.0890  0.4965
 1011SOL    HW1 4227   2.729   4.095   1.462  0.4775  0.8121 -0.2538
 1011SOL    HW2 4228   2.795   3.962   1.489 -1.2319  0.0821  0.4318
 1012SOL     OW 4229   8.120   2.883   7.247 -0.2411  0.1017  0.2717
 1012SOL    HW1 4230   8.074   2.800   7.234 -1.6330  1.0571 -1.4225
 1012SOL    HW2 4231   8.072   2.946   7.193  1.2968  1.8346  0.7964
 1013SOL     OW 4232   7.971   2.395   3.644 -0.1666 -0.2249  0.2271
 1013SOL    HW1 4233   8.061   2.424   3.631 -0.7341  2.1617  1.1255
 1013SOL    HW2 4234   7.941   2.443   3.721 -2.7660  0.4368 -1.0919
 1014SOL     OW 4235   1.022   8.541   5.336 -0.0969 -0.1322  0.2760
 1014SOL    HW1 4236   1.102   8.554   5.386  0.0339  1.4082 -0.2991
 1014SOL    HW2 4237   1.052   8.518   5.248 -0.3017 -0.2883  0.2450
 1015SOL     OW 4238   5.880   5.929   8.431 -0.5518 -0.3386  0.4266
 1015SOL    HW1 4239   5.888   5.968   8.344  2.5501  3.0036  1.9638
 1015SOL    HW2 4240   5.931   5.848   8.425  1.1712  0.7531 -0.4700
 1016SOL     OW 4241   8.066   3.285   4.089 -0.6798 -0.2731 -0.7088
 1016SOL    HW1 4242   8.060   3.189   4.093  3.0334 -0.6413  2.3321
 1016SOL    HW2 4243   8.033   3.314   4.174 -1.6570  1.1841 -1.5610
 1017SOL     OW 4244   5.059   7.424   2.875  0.0525 -0.2559  0.0077
 1017SOL    HW1 4245   4.997   7.402   2.805 -1.6349  2.3452  0.5355
 1017SOL    HW2 4246   5.057   7.348   2.933  1.1255 -2.2693 -2.4122
 1018SOL     OW 4247   5.947   4.490   7.922 -0.1095 -0.2501 -0.6231
 1018SOL    HW1 4248   5.900   4.511   7.842 -0.6855 -0.8018 -0.4404
 1018SOL    HW2 4249   6.006   4.564   7.936 -1.8162  1.0869 -0.1731
 1019SOL     OW 4250   8.209   0.214   6.760 -0.6582 -0.1485  0.0832
 1019SOL    HW1 4251   8.143   0.145   6.766 -1.0130  0.2167  0.4309
 1019SOL    HW2 4252   8.251   0.215   6.846  1.9604 -2.4652 -1.0242
 1020SOL     OW 4253   2.058   1.623   4.910  0.2069 -0.0871 -0.1844
 1020SOL    HW1 4254   2.052   1.647   5.002  2.4838  0.7822 -0.1880
 1020SOL    HW2 4255   2.107   1.695   4.869  2.3171 -2.0332 -1.3402
 1021SOL     OW 4256   5.590   7.611   1.342 -0.1113  0.3987  0.5018
 1021SOL    HW1 4257   5.586   7.622   1.247 -0.7922 -0.6009  0.3988
 1021SOL    HW2 4258   5.499   7.620   1.371  0.0780  0.6058  1.0534
 1022SOL     OW 4259   2.258   1.320   3.317  0.5699  0.3540 -0.4353
 1022SOL    HW1 4260   2.273   1.332   3.223  1.3219 -4.1760 -1.1392
 1022SOL    HW2 4261   2.344   1.298   3.352 -0.3751 -2.7946  0.2160
 1023SOL     OW 4262   0.076   3.835   5.459 -0.1669 -0.1571 -0.2901
 1023SOL    HW1 4263   0.030   3.774   5.402  0.5235 -1.8812  0.9274
 1023SOL    HW2 4264   0.020   3.844   5.535  0.9907 -1.5594  0.7950
 1024SOL     OW 4265   7.012   0.700   3.646  0.2731  0.1470  0.2746
 1024SOL    HW1 4266   7.003   0.686   3.740  0.9974  1.0336  0.4988
 1024SOL    HW2 4267   6.959   0.778   3.628 -1.9385 -1.4750 -0.5414
 1025SOL     OW 4268   7.172   1.579   0.094  0.3735 -0.2153  0.0187
 1025SOL    HW1 4269   7.247   1.583   0.153  1.6883 -0.9496 -1.5153
 1025SOL    HW2 4270   7.180   1.494   0.051  1.5554  1.6127 -3.7919
 1026SOL     OW 4271   6.336   4.823   3.018  0.1994  0.1304 -0.6563
 1026SOL    HW1 4272   6.275   4.887   2.980  0.1751 -0.4566 -1.6500
 1026SOL    HW2 4273   6.407   4.817   2.953  0.7842  0.0167 -0.0141
 1027SOL     OW 4274   6.576   7.404   2.724 -0.1546  0.1549 -0.6419
 1027SOL    HW1 4275   6.545   7.493   2.741  2.5062  1.5728 -2.5160
 1027SOL    HW2 4276   6.499   7.358   2.691 -1.9775  1.2430  1.7866
 1028SOL     OW 4277   3.166   6.508   4.116  0.0052 -0.7309  0.3177
 1028SOL    HW1 4278   3.108   6.439   4.151  1.0153 -1.0846  1.3437
 1028SOL    HW2 4279   3.125   6.533   4.033 -1.4360 -1.2052  0.8452
 1029SOL     OW 4280   0.976   0.279   5.566 -0.0952 -0.3951  0.1592
 1029SOL    HW1 4281   0.989   0.372   5.584  2.1412 -1.0039  2.0666
 1029SOL    HW2 4282   0.980   0.273   5.470 -0.7386  1.4875 -0.0354
 1030SOL     OW 4283   0.597   5.667   0.471 -0.2296  0.1944 -0.5781
 1030SOL    HW1 4284   0.527   5.637   0.413  0.6334 -0.5259 -1.2775
 1030SOL    HW2 4285   0.628   5.587   0.514 -2.2120  0.9229  2.5122
 1031SOL     OW 4286   0.651   8.185   4.662 -0.2228 -0.5540 -0.3621
 1031SOL    HW1 4287   0.732   8.236   4.666 -0.1392 -0.6713 -0.5453
 1031SOL    HW2 4288   0.616   8.202   4.575 -0.7413  0.0171 -0.0483
 1032SOL     OW 4289   2.973   6.824   2.954  0.6235  0.0478  0.4370
 1032SOL    HW1 4290   3.006   6.909   2.983 -0.7132  0.7343  0.0192
 1032SOL    HW2 4291   2.930   6.841   2.870  1.2460 -1.2449 -0.1850
 1033SOL     OW 4292   1.925   1.903   3.009  0.1861  0.2504 -0.3291
 1033SOL    HW1 4293   1.830   1.901   3.021  0.4332  0.7155  2.5622
 1033SOL    HW2 4294   1.952   1.985   3.052  1.9193 -0.0464 -0.7944
 1034SOL     OW 4295   8.397   8.319   3.787  0.2263 -0.2397  0.0956
 1034SOL    HW1 4296   8.404   8.395   3.844  0.7218  1.0112 -1.5648
 1034SOL    HW2 4297   8.336   8.345   3.719 -0.8622 -1.9431  0.3638
 1035SOL     OW 4298   3.170   0.927   4.035  0.4587 -0.4342  0.1396
 1035SOL    HW1 4299   3.196   0.835   4.031 -0.4083 -0.6811 -0.0110
 1035SOL    HW2 4300   3.082   0.929   3.998  0.3106  0.3986  0.5063
 1036SOL     OW 4301   8.524   1.078   2.491  0.0508  0.2950 -1.0470
 1036SOL    HW1 4302   8.518   0.983   2.493  0.4670  0.1942 -2.8728
 1036SOL    HW2 4303   8.460   1.105   2.425  0.0410  1.2632 -0.6568
 1037SOL     OW 4304   6.283   5.907   5.081  1.4467  0.1865 -0.0255
 1037SOL    HW1 4305   6.341   5.851   5.132  1.1868 -1.4546 -1.4687
 1037SOL    HW2 4306   6.221   5.848   5.039 -0.3837  1.7670  0.2937
 1038SOL     OW 4307   3.334   4.887   2.933  0.2360  0.0735  0.2683
 1038SOL    HW1 4308   3.313   4.796   2.953 -1.7207  0.6017  0.8387
 1038SOL    HW2 4309   3.420   4.900   2.973  1.0252 -1.7581 -0.6913
 1039SOL     OW 4310   7.829   7.351   8.588  0.5731 -0.1596  0.0401
 1039SOL    HW1 4311   7.890   7.305   8.532 -1.3291 -1.0058 -1.4514
 1039SOL    HW2 4312   7.759   7.379   8.530 -0.0380  1.6024  1.5081
 1040SOL     OW 4313   7.441   2.958   2.757  0.4968 -0.9336  0.6270
 1040SOL    HW1 4314   7.408   2.877   2.717 -1.4627 -0.3429  0.9383
 1040SOL    HW2 4315   7.527   2.935   2.791  0.7248 -2.4056 -0.8294
 1041SOL     OW 4316   7.208   8.541   6.311  0.0726  0.6256  0.2112
 1041SOL    HW1 4317   7.205   8.554   6.406 -0.0479 -0.5877  0.3916
 1041SOL    HW2 4318   7.218   8.446   6.300  1.1838  0.8477 -0.9759
 1042SOL     OW 4319   0.254   8.424   1.485  0.7056 -0.0194 -0.0816
 1042SOL    HW1 4320   0.203   8.500   1.514 -0.3612 -1.2878  1.5175
 1042SOL    HW2 4321   0.196   8.350   1.497  1.1159 -0.9886 -3.1873
 1043SOL     OW 4322   1.946   6.638   8.332  0.3616 -0.8917 -0.0196
 1043SOL    HW1 4323   2.011   6.624   8.264  1.6916 -0.6038  1.1613
 1043SOL    HW2 4324   1.862   6.634   8.285  1.2204 -0.7602 -1.6501
 1044SOL     OW 4325   1.969   6.577   1.723  0.1793  0.0935 -0.9807
 1044SOL    HW1 4326   1.935   6.588   1.634  0.0251 -1.9933 -1.2217
 1044SOL    HW2 4327   2.014   6.492   1.721  2.6679  1.2720  0.1888
 1045SOL     OW 4328   8.512   4.108   0.346  0.5841  0.3612 -0.0259
 1045SOL    HW1 4329   8.432   4.070   0.381  0.0683  2.6298  1.4670
 1045SOL    HW2 4330   8.579   4.090   0.412  1.3312 -1.2934 -1.1443
 1046SOL     OW 4331   1.652   4.411   5.367  0.4574 -0.2105 -0.0390
 1046SOL    HW1 4332   1.573   4.382   5.321 -0.1460  2.4865 -0.8495
 1046SOL    HW2 4333   1.626   4.418   5.458 -0.0315 -0.0312 -0.1927
 1047SOL     OW 4334   1.558   5.633   1.181 -0.2716  0.1365  0.5334
 1047SOL    HW1 4335   1.548   5.687   1.103 -0.4392 -0.3781  0.1989
 1047SOL    HW2 4336   1.481   5.576   1.181  0.4767 -0.9094  0.2511
 1048SOL     OW 4337   7.396   4.067   3.705  0.1306 -0.8080 -0.3917
 1048SOL    HW1 4338   7.328   4.095   3.765  1.2917  1.4681 -0.0320
 1048SOL    HW2 4339   7.435   4.148   3.673  0.3056 -1.9356 -3.3874
 1049SOL     OW 4340   3.216   0.417   2.605 -0.4464  0.2899  0.0245
 1049SOL    HW1 4341   3.194   0.452   2.691  0.3006  1.9233 -0.4120
 1049SOL    HW2 4342   3.144   0.443   2.548  0.7885  2.5718 -0.6299
 1050SOL     OW 4343   5.939   5.808   0.375  0.3964 -0.2716  0.3974
 1050SOL    HW1 4344   5.870   5.841   0.317  1.1643  1.5450  0.4487
 1050SOL    HW2 4345   5.932   5.712   0.368 -1.8763 -0.1504  0.1424
 1051SOL     OW 4346   0.843   5.929   7.964 -0.0462  0.0847  0.0558
 1051SOL    HW1 4347   0.771   5.882   7.923 -0.2008  0.3192  0.0542
 1051SOL    HW2 4348   0.914   5.865   7.970 -0.1474 -0.0540 -0.2353
 1052SOL     OW 4349   8.472   2.236   0.119 -0.0861 -0.4431 -0.1237
 1052SOL    HW1 4350   8.511   2.321   0.142 -0.3854  0.0465 -1.3117
 1052SOL    HW2 4351   8.390   2.259   0.075 -0.3194 -1.3613 -0.1769
 1053SOL     OW 4352   7.063   5.213   5.307  0.3878  0.2720 -0.5196
 1053SOL    HW1 4353   7.076   5.129   5.351  1.7801  1.0097  0.5518
 1053SOL    HW2 4354   7.092   5.198   5.217 -0.7626 -0.7610 -0.7487
 1054SOL     OW 4355   7.411   5.014   0.992 -0.1530  0.1003  0.4630
 1054SOL    HW1 4356   7.377   5.021   0.902 -0.6488  2.1602  0.7566
 1054SOL    HW2 4357   7.378   4.930   1.023  0.7166 -1.0572 -1.5368
 1055SOL     OW 4358   3.835   8.273   3.519  0.0872 -0.2949  0.4560
 1055SOL    HW1 4359   3.926   8.248   3.534  0.0504 -0.1393  0.9751
 1055SOL    HW2 4360   3.833   8.308   3.430  1.1182  2.4322  1.4056
 1056SOL     OW 4361   4.017   0.101   1.302 -0.6529 -0.0503  0.3370
 1056SOL    HW1 4362   3.926   0.072   1.299 -0.3566 -1.0338  0.5665
 1056SOL    HW2 4363   4.067   0.030   1.263  0.0008  0.5751  0.0137
 1057SOL     OW 4364   5.648   6.721   3.017  0.6182  0.2800 -0.8820
 1057SOL    HW1 4365   5.672   6.811   3.039 -2.8263  1.1625 -0.2175
 1057SOL    HW2 4366   5.594   6.692   3.090  0.6497 -1.9304 -1.6647
 1058SOL     OW 4367   4.954   5.584   4.646  0.4519 -0.5074  0.3161
 1058SOL    HW1 4368   4.860   5.569   4.655  0.6374 -1.0290  1.7472
 1058SOL    HW2 4369   4.962   5.678   4.631 -0.2809 -0.3498  0.8183
 1059SOL     OW 4370   0.452   5.941   4.906 -0.5629 -0.0925  0.0800
 1059SOL    HW1 4371   0.466   5.902   4.992 -1.5011 -1.1079 -0.2116
 1059SOL    HW2 4372   0.396   6.017   4.923 -0.6385 -0.2164  0.3783
 1060SOL     OW 4373   0.486   5.024   5.918 -0.2614  0.3747  0.1984
 1060SOL    HW1 4374   0.529   4.941   5.940 -1.4307 -0.5407 -0.8352
 1060SOL    HW2 4375   0.473   5.067   6.003  0.1649 -0.6033  0.7803
 1061SOL     OW 4376   0.245   3.030   7.026 -0.4216 -0.5143 -0.3289
 1061SOL    HW1 4377   0.309   2.991   6.966  1.0654 -0.1215  0.9564
 1061SOL    HW2 4378   0.178   3.067   6.968  1.5006  0.8034 -1.8304
 1062SOL     OW 4379   5.244   2.753   0.555  0.0239 -0.2307 -0.0149
 1062SOL    HW1 4380   5.262   2.667   0.594  1.1615 -0.9101 -1.8784
 1062SOL    HW2 4381   5.322   2.805   0.575 -1.3215  1.0098  2.5207
 1063SOL     OW 4382   6.977   4.974   7.769 -0.1155  0.1609 -0.3247
 1063SOL    HW1 4383   6.900   4.970   7.826  0.1095 -1.4265 -0.0875
 1063SOL    HW2 4384   6.991   5.068   7.755 -1.2556  0.5266  0.7496
 1064SOL     OW 4385   0.449   6.059   6.833  0.2511  0.5391  0.7025
 1064SOL    HW1 4386   0.454   6.131   6.770 -0.4838 -0.7152 -0.8398
 1064SOL    HW2 4387   0.362   6.022   6.820  1.1430 -1.5469  0.4284
 1065SOL     OW 4388   2.779   6.994   0.892  0.2381  0.2838 -0.1356
 1065SOL    HW1 4389   2.857   7.031   0.850  1.3034 -2.0284 -0.3655
 1065SOL    HW2 4390   2.806   6.982   0.983 -0.2707  0.5178  0.0482
 1066SOL     OW 4391   0.954   4.433   3.557 -0.1022 -0.1802 -0.3909
 1066SOL    HW1 4392   0.972   4.527   3.560 -0.8173 -0.0479  0.2044
 1066SOL    HW2 4393   1.025   4.396   3.505  0.1940  0.6890 -0.6212
 1067SOL     OW 4394   4.040   6.322   6.758  0.3955 -0.6468 -0.3420
 1067SOL    HW1 4395   3.991   6.379   6.697 -0.2465  0.2861  0.9918
 1067SOL    HW2 4396   3.978   6.253   6.781 -0.4342  0.6202  1.4680
 1068SOL     OW 4397   3.705   3.913   3.569 -0.3174  0.3937  0.7176
 1068SOL    HW1 4398   3.729   3.829   3.528  0.0839  0.4607  0.8069
 1068SOL    HW2 4399   3.669   3.965   3.497 -1.0436 -0.0337  0.7652
 1069SOL     OW 4400   3.721   1.452   5.289 -0.4979  0.3624  0.0323
 1069SOL    HW1 4401   3.640   1.407   5.314  0.1341 -0.3886  0.7927
 1069SOL    HW2 4402   3.738   1.512   5.362  0.0997 -0.1273  0.3020
 1070SOL     OW 4403   2.482   1.725   2.827  0.1157 -0.7692 -0.0537
 1070SOL    HW1 4404   2.499   1.781   2.904  1.8755 -2.4848  0.8970
 1070SOL    HW2 4405   2.403   1.761   2.789 -0.5267  0.5080  2.2656
 1071SOL     OW 4406   5.559   3.266   3.378 -0.0365 -0.8778  0.3001
 1071SOL    HW1 4407   5.594   3.229   3.297  1.3374  0.4021  0.2657
 1071SOL    HW2 4408   5.468   3.287   3.358 -0.0767 -1.7766 -0.4889
 1072SOL     OW 4409   3.072   4.774   7.295  0.3623 -0.2316 -0.1386
 1072SOL    HW1 4410   3.125   4.714   7.243  1.6216  0.6933  0.0454
 1072SOL    HW2 4411   3.054   4.848   7.236  1.6003  0.7105  0.6225
 1073SOL     OW 4412   6.107   7.746   1.209 -0.1429 -0.2697  0.2986
 1073SOL    HW1 4413   6.163   7.809   1.254  0.0542  0.1099 -0.4632
 1073SOL    HW2 4414   6.046   7.799   1.157 -1.6841 -0.6534  1.6385
 1074SOL     OW 4415   6.518   6.980   1.122 -0.3276 -0.3257  0.1051
 1074SOL    HW1 4416   6.500   6.932   1.203 -0.6449  0.0914  0.2877
 1074SOL    HW2 4417   6.583   6.927   1.076  0.2121 -0.3173  0.8548
 1075SOL     OW 4418   0.864   0.815   7.040  0.5357 -0.4296 -0.0802
 1075SOL    HW1 4419   0.777   0.815   7.080  0.0880 -3.0191 -0.9065
 1075SOL    HW2 4420   0.915   0.877   7.094 -1.3872  0.0228  1.3266
 1076SOL     OW 4421   0.649   3.057   6.085  0.0210 -0.3844  0.6484
 1076SOL    HW1 4422   0.614   3.042   5.997  0.4142 -0.5858  0.5236
 1076SOL    HW2 4423   0.574   3.086   6.136  0.0129  0.8859 -0.0420
 1077SOL     OW 4424   0.565   5.962   4.240  0.3090 -0.5396 -0.1674
 1077SOL    HW1 4425   0.511   6.041   4.243 -0.0989 -0.8105 -0.2197
 1077SOL    HW2 4426   0.533   5.907   4.312  0.3188 -0.8243 -0.3748
 1078SOL     OW 4427   1.677   5.173   2.113 -0.0715 -0.3580 -0.1724
 1078SOL    HW1 4428   1.594   5.216   2.093 -0.0967 -0.6236 -0.6475
 1078SOL    HW2 4429   1.676   5.162   2.208 -0.5086 -0.2174 -0.1581
 1079SOL     OW 4430   1.891   4.965   7.400 -0.2747  0.1970  0.0802
 1079SOL    HW1 4431   1.962   5.029   7.387  0.7547 -0.5561  1.6700
 1079SOL    HW2 4432   1.811   5.017   7.394  0.4763  1.4026  0.0690
 1080SOL     OW 4433   8.271   7.510   2.869  0.1359  0.1284 -0.7057
 1080SOL    HW1 4434   8.215   7.479   2.798  0.3848 -0.3603 -0.6915
 1080SOL    HW2 4435   8.260   7.445   2.939 -0.8920  1.1339  0.1007
 1081SOL     OW 4436   5.114   7.541   1.354  0.0695 -0.1085  0.3357
 1081SOL    HW1 4437   5.147   7.523   1.442  0.8416  1.0462  0.2990
 1081SOL    HW2 4438   5.070   7.460   1.328  0.2259 -0.6192  1.6010
 1082SOL     OW 4439   4.285   2.324   3.399 -0.0532 -0.2925  0.8763
 1082SOL    HW1 4440   4.352   2.257   3.408  1.3686  1.0163  0.3517
 1082SOL    HW2 4441   4.288   2.374   3.480  2.3023  2.0910 -0.5110
 1083SOL     OW 4442   1.672   0.697   4.178  0.0178  0.3952 -0.7640
 1083SOL    HW1 4443   1.758   0.690   4.137 -0.1964 -0.6275 -1.0720
 1083SOL    HW2 4444   1.664   0.790   4.201  2.8351 -0.0181  2.8230
 1084SOL     OW 4445   1.718   7.140   2.066 -0.3335  0.0168 -0.0381
 1084SOL    HW1 4446   1.634   7.158   2.108 -0.7397  1.2626 -1.2785
 1084SOL    HW2 4447   1.704   7.057   2.020 -0.9761  0.3001 -0.3773
 1085SOL     OW 4448   6.063   5.304   3.895 -0.2835 -0.2675  0.2483
 1085SOL    HW1 4449   5.982   5.356   3.897 -0.1804 -0.1126  1.9802
 1085SOL    HW2 4450   6.069   5.272   3.804 -2.5641 -0.7065  0.1809
 1086SOL     OW 4451   3.375   1.241   3.504 -0.2304  0.8976 -0.6501
 1086SOL    HW1 4452   3.406   1.305   3.439 -3.0570  3.0174 -0.1343
 1086SOL    HW2 4453   3.359   1.162   3.454  1.2849  1.2507 -1.7678
 1087SOL     OW 4454   1.713   6.868   7.132  0.4464 -0.3064 -0.0790
 1087SOL    HW1 4455   1.675   6.782   7.150  1.1218 -0.7314 -0.6654
 1087SOL    HW2 4456   1.782   6.879   7.198 -0.5998  0.4330  0.9376
 1088SOL     OW 4457   0.073   8.574   2.424 -0.5107  0.3226 -0.2775
 1088SOL    HW1 4458   0.020   8.641   2.381  0.7866  0.5954 -1.5404
 1088SOL    HW2 4459   0.089   8.609   2.511 -1.1194  0.9458 -0.4048
 1089SOL     OW 4460   0.022   0.571   0.297 -0.3947  0.6677  0.2014
 1089SOL    HW1 4461  -0.074   0.581   0.293 -0.2350  2.1694 -0.7086
 1089SOL    HW2 4462   0.051   0.646   0.348  0.3209  0.2141  0.4703
 1090SOL     OW 4463   2.346   0.920   7.640 -0.0079  0.0819 -0.2673
 1090SOL    HW1 4464   2.420   0.890   7.693 -0.4454 -1.2617 -0.3680
 1090SOL    HW2 4465   2.274   0.864   7.667 -0.2001 -0.7795 -2.3937
 1091SOL     OW 4466   5.936   5.468   6.571 -0.3439  0.4212 -0.0406
 1091SOL    HW1 4467   5.983   5.462   6.488 -0.0589 -2.2664  0.2222
 1091SOL    HW2 4468   5.967   5.550   6.610  2.3866 -0.0857 -0.9106
 1092SOL     OW 4469   0.638   4.662   8.415 -0.1015 -0.0060  0.2032
 1092SOL    HW1 4470   0.549   4.682   8.443  0.4939  0.7544  1.6896
 1092SOL    HW2 4471   0.688   4.658   8.497  1.3222  0.0542 -0.6329
 1093SOL     OW 4472   2.266   1.044   3.599 -0.0081  0.3252  0.0558
 1093SOL    HW1 4473   2.230   1.130   3.620 -2.4317  0.0694 -2.4439
 1093SOL    HW2 4474   2.239   0.988   3.672 -1.9087  0.9067 -0.1547
 1094SOL     OW 4475   3.318   7.009   6.254  0.6561  0.0595 -0.7002
 1094SOL    HW1 4476   3.406   7.011   6.217  1.3332  0.7880  0.8283
 1094SOL    HW2 4477   3.294   6.916   6.256  1.5908 -0.1891 -0.7049
 1095SOL     OW 4478   0.139   2.247   3.459 -0.0347  0.0771  0.1086
 1095SOL    HW1 4479   0.178   2.330   3.434 -0.9819  0.0801 -1.5680
 1095SOL    HW2 4480   0.192   2.181   3.414  0.0406 -0.1466  0.5227
 1096SOL     OW 4481   7.061   0.940   2.838  0.3725 -0.0233 -0.3883
 1096SOL    HW1 4482   6.984   0.994   2.855  0.1603  0.5719 -2.8463
 1096SOL    HW2 4483   7.120   0.997   2.790  0.8803 -1.4475 -1.5353
 1097SOL     OW 4484   0.654   0.183   1.545  0.1443  0.0069 -0.2484
 1097SOL    HW1 4485   0.666   0.207   1.454 -0.3712  0.6187 -0.1607
 1097SOL    HW2 4486   0.590   0.112   1.544  0.1073  0.0429 -0.3576
 1098SOL     OW 4487   6.790   7.834   1.525 -0.1606 -0.0023 -0.3326
 1098SOL    HW1 4488   6.697   7.857   1.523 -0.6646 -1.8616 -1.2964
 1098SOL    HW2 4489   6.834   7.907   1.482 -1.2172  0.7544 -0.1581
 1099SOL     OW 4490   6.321   4.518   6.622 -0.0596  0.7011  0.3145
 1099SOL    HW1 4491   6.400   4.516   6.568  1.6838 -0.7279  2.6843
 1099SOL    HW2 4492   6.258   4.464   6.575  0.3341  1.8909 -1.6544
 1100SOL     OW 4493   5.056   0.836   5.860 -0.0147 -0.1263 -0.7053
 1100SOL    HW1 4494   5.055   0.740   5.858  0.7308 -0.1597 -0.0619
 1100SOL    HW2 4495   4.982   0.859   5.917  1.9425 -0.4844  2.1675
 1101SOL     OW 4496   3.828   1.745   1.592  0.4346  0.2797 -0.2194
 1101SOL    HW1 4497   3.862   1.806   1.525  2.4163 -0.9630 -0.4218
 1101SOL    HW2 4498   3.734   1.761   1.592  0.7569  2.6911 -0.9170
 1102SOL     OW 4499   4.588   2.425   7.164 -0.2626  0.5044  0.6637
 1102SOL    HW1 4500   4.654   2.483   7.204  0.7336 -0.4975  0.5208
 1102SOL    HW2 4501   4.526   2.407   7.235  2.2166 -2.3660  2.3446
 1103SOL     OW 4502   5.695   2.736   4.501 -0.0240 -0.2825 -0.2331
 1103SOL    HW1 4503   5.732   2.729   4.589 -0.0613  0.1503 -0.1855
 1103SOL    HW2 4504   5.668   2.646   4.480  0.2690 -0.4428  0.0709
 1104SOL     OW 4505   7.060   5.628   4.585  0.0658 -0.1265 -0.2460
 1104SOL    HW1 4506   6.980   5.679   4.573 -0.4700 -1.0335 -0.6044
 1104SOL    HW2 4507   7.053   5.557   4.521  1.9806  0.7381 -1.5180
 1105SOL     OW 4508   0.298   5.863   5.502  0.4102  0.5756 -0.0504
 1105SOL    HW1 4509   0.370   5.906   5.457  2.3920 -2.0626  0.3677
 1105SOL    HW2 4510   0.275   5.922   5.574  3.5688  0.6229  1.0445
 1106SOL     OW 4511   0.354   4.958   8.246  0.0953 -0.3978  0.1652
 1106SOL    HW1 4512   0.398   4.914   8.319  1.9331  0.6820 -0.2152
 1106SOL    HW2 4513   0.397   5.043   8.240 -1.2366  0.2348 -1.0596
 1107SOL     OW 4514   8.042   7.925   1.539 -1.1452  0.2603  0.5465
 1107SOL    HW1 4515   7.984   7.862   1.580 -0.7711  0.1634  0.9277
 1107SOL    HW2 4516   8.012   8.010   1.571 -0.3992  0.1377  1.6007
 1108SOL     OW 4517   7.355   1.879   8.568  0.0302 -0.2287  0.0027
 1108SOL    HW1 4518   7.261   1.864   8.566 -0.0531  0.1711  0.6901
 1108SOL    HW2 4519   7.367   1.949   8.633  0.4353  2.2487 -2.5142
 1109SOL     OW 4520   8.271   2.646   5.127  0.5550  0.0437  0.1681
 1109SOL    HW1 4521   8.279   2.685   5.040  2.7516 -0.3753  0.1229
 1109SOL    HW2 4522   8.250   2.554   5.110 -2.3883  0.6263  0.2217
 1110SOL     OW 4523   3.491   7.495   3.982  0.3402 -0.6618 -0.3020
 1110SOL    HW1 4524   3.481   7.509   4.076 -1.4826 -0.4221 -0.4825
 1110SOL    HW2 4525   3.522   7.406   3.974  0.6123 -0.6522  0.5362
 1111SOL     OW 4526   5.372   5.144   5.222  0.3950 -0.5641  0.3252
 1111SOL    HW1 4527   5.358   5.235   5.195 -1.2578 -0.5233  1.1849
 1111SOL    HW2 4528   5.447   5.148   5.282  0.2140  0.2527  0.5091
 1112SOL     OW 4529   5.599   4.450   1.419  0.2035  0.2921 -0.4336
 1112SOL    HW1 4530   5.575   4.530   1.374 -0.5210  0.0868 -0.4157
 1112SOL    HW2 4531   5.524   4.429   1.475  0.6219 -0.0781  0.0035
 1113SOL     OW 4532   0.409   4.761   8.528  0.3165  0.5914 -0.2787
 1113SOL    HW1 4533   0.415   4.822   8.601  1.1897  2.8230 -2.1218
 1113SOL    HW2 4534   0.323   4.777   8.490 -0.7880 -1.6484  1.0630
 1114SOL     OW 4535   1.115   4.998   4.911  0.1727 -0.0545 -0.0287
 1114SOL    HW1 4536   1.104   5.075   4.966  1.3654  0.5596 -0.6146
 1114SOL    HW2 4537   1.069   5.019   4.830  0.2995 -0.0573 -0.1015
 1115SOL     OW 4538   6.141   4.607   0.454  0.0757  0.6858 -0.2453
 1115SOL    HW1 4539   6.198   4.673   0.493 -0.3903  1.5520 -0.9911
 1115SOL    HW2 4540   6.125   4.639   0.365  0.0069 -0.5415 -0.6891
 1116SOL     OW 4541   8.013   0.808   2.471 -0.1255  0.4158 -0.3365
 1116SOL    HW1 4542   7.943   0.869   2.446  0.3979  0.4180 -1.9471
 1116SOL    HW2 4543   8.026   0.753   2.393  0.8110 -0.3984  0.3649
 1117SOL     OW 4544   6.703   3.390   2.116  0.0956  0.1770  0.0926
 1117SOL    HW1 4545   6.797   3.380   2.129  0.3155  1.3738 -0.4929
 1117SOL    HW2 4546   6.688   3.359   2.027  0.2133  1.5723 -0.4255
 1118SOL     OW 4547   3.013   1.790   4.118  0.1718  0.4681 -0.6309
 1118SOL    HW1 4548   2.999   1.883   4.136  1.2776  0.2382  1.7251
 1118SOL    HW2 4549   2.939   1.746   4.159  1.2823  0.1414  1.1587
 1119SOL     OW 4550   1.566   6.502   4.251  0.3768  0.2515  0.4188
 1119SOL    HW1 4551   1.581   6.423   4.302 -1.5462 -2.1855 -2.4098
 1119SOL    HW2 4552   1.497   6.548   4.299 -0.9186 -1.6183  0.4765
 1120SOL     OW 4553   4.490   8.228   3.531 -0.2370  0.3489  0.1594
 1120SOL    HW1 4554   4.419   8.270   3.579  0.7870  1.9547  0.3458
 1120SOL    HW2 4555   4.475   8.251   3.440 -0.3849  0.0337  0.1036
 1121SOL     OW 4556   6.861   7.232   4.233  0.4476 -0.3123  0.0875
 1121SOL    HW1 4557   6.917   7.306   4.256 -2.0889  1.3667  1.3485
 1121SOL    HW2 4558   6.918   7.156   4.241  2.8530  1.3628 -0.0290
 1122SOL     OW 4559   8.146   4.509   4.639 -0.6136 -0.1045 -0.0280
 1122SOL    HW1 4560   8.104   4.546   4.717  0.7482  0.5833  0.4178
 1122SOL    HW2 4561   8.237   4.495   4.665 -0.7039 -2.3298 -0.6964
 1123SOL     OW 4562   1.084   2.997   0.574 -0.1354 -0.0230  0.1940
 1123SOL    HW1 4563   1.024   3.068   0.592 -0.2521  0.2779 -1.2217
 1123SOL    HW2 4564   1.171   3.036   0.581 -0.1876  0.1511 -0.0952
 1124SOL     OW 4565   8.255   3.009   0.478 -0.5068  0.5371  0.1303
 1124SOL    HW1 4566   8.197   3.034   0.550 -1.2746 -0.9437  0.0646
 1124SOL    HW2 4567   8.222   3.057   0.403 -0.3394  1.2984  0.5350
 1125SOL     OW 4568   1.212   1.157   6.034  0.3035  0.3420  0.3594
 1125SOL    HW1 4569   1.134   1.146   6.088 -0.7310  1.9978 -0.7251
 1125SOL    HW2 4570   1.213   1.250   6.011  2.4652  0.3104  0.1264
 1126SOL     OW 4571   5.937   5.793   5.631  0.7033 -0.0355 -0.4800
 1126SOL    HW1 4572   5.918   5.846   5.554  2.4143  1.2487 -0.0884
 1126SOL    HW2 4573   5.997   5.726   5.599  1.9928  0.9315 -0.1883
 1127SOL     OW 4574   1.174   4.881   4.406 -0.0353  0.4282  0.0946
 1127SOL    HW1 4575   1.140   4.867   4.494 -0.9151  0.3446 -0.2486
 1127SOL    HW2 4576   1.223   4.801   4.386 -1.2291 -0.2706 -0.1171
 1128SOL     OW 4577   0.798   1.058   0.635  0.0684 -0.3266 -0.0370
 1128SOL    HW1 4578   0.830   1.145   0.613  0.2425 -0.9356 -2.5198
 1128SOL    HW2 4579   0.874   1.001   0.628 -0.3298 -0.8870  0.0807
 1129SOL     OW 4580   7.350   6.859   0.701  1.0891 -0.0902 -0.0104
 1129SOL    HW1 4581   7.319   6.819   0.620  0.4101 -3.2749  1.6646
 1129SOL    HW2 4582   7.387   6.786   0.751  2.0422  1.8560  2.3119
 1130SOL     OW 4583   0.329   0.654   4.553 -0.5717  0.3015 -0.1955
 1130SOL    HW1 4584   0.402   0.601   4.521 -0.8413 -1.1962  1.5380
 1130SOL    HW2 4585   0.370   0.734   4.586  0.2051 -0.1990  0.0743
 1131SOL     OW 4586   0.314   2.071   0.991 -0.3097 -0.3956  0.3210
 1131SOL    HW1 4587   0.356   2.154   1.013 -0.6783 -0.3041  0.6874
 1131SOL    HW2 4588   0.243   2.096   0.932  0.0730 -0.5385 -0.2128
 1132SOL     OW 4589   5.608   6.102   8.558  0.2383 -0.1468  0.3995
 1132SOL    HW1 4590   5.611   6.095   8.463 -1.6693  0.9630  0.2040
 1132SOL    HW2 4591   5.683   6.157   8.581  0.0022  0.6099 -0.5936
 1133SOL     OW 4592   7.135   3.008   2.912  0.1228 -0.6579 -0.2501
 1133SOL    HW1 4593   7.173   3.084   2.955 -1.0531  0.3057 -0.8574
 1133SOL    HW2 4594   7.198   2.938   2.928  1.9168  0.7413 -0.8011
 1134SOL     OW 4595   6.146   1.474   3.843 -0.7104  0.0395  0.2953
 1134SOL    HW1 4596   6.145   1.480   3.748 -1.3033 -0.1928  0.2829
 1134SOL    HW2 4597   6.080   1.537   3.872  0.1216  0.7969  0.6011
 1135SOL     OW 4598   2.566   6.585   4.154  0.3355 -0.6591 -0.0009
 1135SOL    HW1 4599   2.651   6.628   4.150 -0.3451  0.8673  0.9042
 1135SOL    HW2 4600   2.519   6.618   4.077 -1.1722  2.6378  2.0801
 1136SOL     OW 4601   1.235   4.735   1.520 -0.0277 -0.4283 -0.6860
 1136SOL    HW1 4602   1.239   4.727   1.615  0.0685  2.7633 -0.3131
 1136SOL    HW2 4603   1.172   4.668   1.492 -1.5154 -0.1841  1.8226
 1137SOL     OW 4604   4.081   6.965   1.839 -0.1758  0.7695  0.1915
 1137SOL    HW1 4605   4.172   6.948   1.864 -0.1238  0.0907 -0.4153
 1137SOL    HW2 4606   4.030   6.902   1.890 -0.2723  0.8978  0.2540
 1138SOL     OW 4607   4.217   7.321   4.370 -0.0275  0.2157  0.8494
 1138SOL    HW1 4608   4.285   7.370   4.323 -0.1082  1.8849  2.3686
 1138SOL    HW2 4609   4.259   7.238   4.393  1.2946  0.9642  1.2174
 1139SOL     OW 4610   6.602   1.441   2.150 -0.2791  0.2690  0.0997
 1139SOL    HW1 4611   6.523   1.469   2.196  0.8187  2.0193  1.0515
 1139SOL    HW2 4612   6.584   1.351   2.122 -2.5721  0.6198  0.2984
 1140SOL     OW 4613   1.671   4.110   3.120  0.1071  0.7404  0.2949
 1140SOL    HW1 4614   1.741   4.059   3.159 -0.1379 -0.8877 -1.2634
 1140SOL    HW2 4615   1.681   4.096   3.026 -1.6033  1.4118 -0.0190
 1141SOL     OW 4616   0.496   5.074   0.945  0.0319  0.2492 -0.6085
 1141SOL    HW1 4617   0.550   5.134   0.997 -0.3485  1.1290 -1.1900
 1141SOL    HW2 4618   0.427   5.045   1.005 -0.1186  0.8713 -0.4661
 1142SOL     OW 4619   8.242   3.192   1.152 -0.2783  0.3316 -0.1223
 1142SOL    HW1 4620   8.166   3.203   1.094 -0.4551  0.3569  0.1148
 1142SOL    HW2 4621   8.207   3.150   1.230  0.1018 -0.4306 -0.3520
 1143SOL     OW 4622   6.871   6.474   3.945 -0.1088  0.0067 -0.2168
 1143SOL    HW1 4623   6.926   6.453   3.870 -0.8884  1.1274 -1.1523
 1143SOL    HW2 4624   6.895   6.564   3.967  1.2821 -0.8321  1.9675
 1144SOL     OW 4625   1.783   5.536   4.600  0.9576 -0.1428 -0.2881
 1144SOL    HW1 4626   1.817   5.516   4.688 -0.0776 -3.9495 -0.5986
 1144SOL    HW2 4627   1.840   5.487   4.541 -1.7317 -2.4134 -1.1938
 1145SOL     OW 4628   7.993   2.559   4.924 -0.7902  0.1928  0.3106
 1145SOL    HW1 4629   8.073   2.517   4.956 -0.3360  1.4714  0.9561
 1145SOL    HW2 4630   7.968   2.509   4.847  1.3322  0.4714 -0.6419
 1146SOL     OW 4631   2.631   3.174   3.827 -0.0348 -0.0836  0.1778
 1146SOL    HW1 4632   2.682   3.200   3.750 -0.5158 -1.0809 -0.4962
 1146SOL    HW2 4633   2.543   3.207   3.811  0.2562  1.2389  1.1323
 1147SOL     OW 4634   6.218   6.764   3.289 -0.0779  0.0737  0.5618
 1147SOL    HW1 4635   6.150   6.774   3.356  0.7364 -0.6516  1.5378
 1147SOL    HW2 4636   6.171   6.745   3.209 -1.0190 -0.7306  1.2851
 1148SOL     OW 4637   8.041   8.074   6.694 -0.0668  0.0360  0.2768
 1148SOL    HW1 4638   7.972   8.141   6.702 -0.1799  0.0708 -0.8514
 1148SOL    HW2 4639   8.024   8.014   6.767 -1.6992 -0.3226 -0.3501
 1149SOL     OW 4640   7.161   3.517   2.173 -0.1187 -0.3543 -0.2176
 1149SOL    HW1 4641   7.129   3.547   2.258 -2.0920 -4.4945  0.7447
 1149SOL    HW2 4642   7.256   3.508   2.186 -0.0686  1.1361  0.7508
 1150SOL     OW 4643   6.620   2.968   7.836 -0.4096 -0.2411 -0.6032
 1150SOL    HW1 4644   6.656   2.974   7.924 -0.4925 -1.5963 -0.4585
 1150SOL    HW2 4645   6.693   2.992   7.779  0.0380 -0.6444 -0.2095
 1151SOL     OW 4646   8.574   5.126   6.980 -0.6397 -0.0582  0.4794
 1151SOL    HW1 4647   8.642   5.103   7.043  0.9073 -0.0433 -1.1030
 1151SOL    HW2 4648   8.572   5.052   6.920 -0.2286  1.0169 -0.9062
 1152SOL     OW 4649   4.922   1.882   5.091  0.5324 -0.1928 -0.1827
 1152SOL    HW1 4650   4.854   1.862   5.155  1.0936 -0.0210  0.4806
 1152SOL    HW2 4651   4.980   1.805   5.092  1.6680  0.6402  1.0232
 1153SOL     OW 4652   8.246   6.848   0.299  0.5029  0.6568  0.4400
 1153SOL    HW1 4653   8.174   6.895   0.256  0.3983  0.7652  0.7320
 1153SOL    HW2 4654   8.325   6.891   0.266  0.3895  1.4894  1.2110
 1154SOL     OW 4655   5.435   2.096   8.313  0.3137 -0.3681  0.4997
 1154SOL    HW1 4656   5.477   2.180   8.296 -0.8316 -0.0736 -1.1035
 1154SOL    HW2 4657   5.487   2.057   8.384  0.0253  2.2676  2.2826
 1155SOL     OW 4658   2.778   7.614   6.507  0.0284  0.5555 -0.4607
 1155SOL    HW1 4659   2.797   7.554   6.436  0.7537 -0.0743  0.2366
 1155SOL    HW2 4660   2.856   7.611   6.562 -1.9324 -2.1198  2.5521
 1156SOL     OW 4661   0.808   7.734   4.743  0.3791 -0.1433  0.4721
 1156SOL    HW1 4662   0.878   7.798   4.744  2.0924 -1.8345 -1.2917
 1156SOL    HW2 4663   0.852   7.649   4.753 -1.3879 -1.2758 -0.6204
 1157SOL     OW 4664   1.183   8.358   6.717  0.3538  0.1994 -0.0211
 1157SOL    HW1 4665   1.107   8.398   6.758  0.4888  0.8798 -0.4249
 1157SOL    HW2 4666   1.254   8.421   6.729  0.9079 -0.5057  0.5093
 1158SOL     OW 4667   8.018   4.815   0.665  0.1679  0.5404  0.1433
 1158SOL    HW1 4668   8.024   4.767   0.582  1.3205  0.9889 -0.0579
 1158SOL    HW2 4669   8.039   4.749   0.732 -1.4403  0.0072  0.1716
 1159SOL     OW 4670   2.609   8.335   7.849  0.2292 -0.0665 -0.4684
 1159SOL    HW1 4671   2.690   8.348   7.800 -0.0388 -0.5515 -1.0409
 1159SOL    HW2 4672   2.595   8.241   7.848 -0.3110  0.0103 -0.3146
 1160SOL     OW 4673   5.912   0.318   6.022 -0.1966 -0.1945 -0.4475
 1160SOL    HW1 4674   5.934   0.225   6.019  0.4042 -0.0989  0.7217
 1160SOL    HW2 4675   5.976   0.359   5.963 -0.6096 -0.5388 -1.1473
 1161SOL     OW 4676   1.722   5.340   7.227  0.1780 -0.5245  0.2517
 1161SOL    HW1 4677   1.812   5.363   7.249  0.3549 -0.1803 -0.7509
 1161SOL    HW2 4678   1.707   5.256   7.271  1.4690 -1.2852 -0.6779
 1162SOL     OW 4679   4.237   4.099   6.359  0.0576 -0.4112  0.1643
 1162SOL    HW1 4680   4.178   4.129   6.428  1.2405 -2.9684  2.4077
 1162SOL    HW2 4681   4.184   4.040   6.306 -0.5334  0.6912 -0.5251
 1163SOL     OW 4682   5.937   2.386   0.326  0.0836 -0.5959  0.8649
 1163SOL    HW1 4683   5.962   2.419   0.412 -0.6920  0.5946  0.6455
 1163SOL    HW2 4684   6.017   2.393   0.274 -0.1230  1.2101  0.7536
 1164SOL     OW 4685   4.827   4.168   3.500  0.2566 -0.1950 -0.6008
 1164SOL    HW1 4686   4.885   4.095   3.520 -2.5154 -2.2699  0.5948
 1164SOL    HW2 4687   4.807   4.157   3.407  1.2548  0.1469 -0.8615
 1165SOL     OW 4688   6.901   7.450   4.645 -0.1881 -0.2548 -0.2223
 1165SOL    HW1 4689   6.901   7.354   4.650 -0.3646 -0.3154 -1.2033
 1165SOL    HW2 4690   6.813   7.472   4.613  0.1156  0.1861 -0.7628
 1166SOL     OW 4691   8.058   0.468   3.137  0.7599 -0.1285  0.8103
 1166SOL    HW1 4692   8.028   0.512   3.057 -1.0375  1.0721  2.0702
 1166SOL    HW2 4693   8.148   0.442   3.118  1.0142  1.7825 -0.9372
 1167SOL     OW 4694   0.746   0.706   7.619 -0.0594  0.1603 -0.4138
 1167SOL    HW1 4695   0.739   0.642   7.690 -2.5990  1.6196  0.7882
 1167SOL    HW2 4696   0.782   0.785   7.660  0.1906  0.4617 -1.1820
 1168SOL     OW 4697   2.588   7.126   3.790  0.1759  0.1922  0.6146
 1168SOL    HW1 4698   2.668   7.176   3.777  0.9826 -1.1960 -0.0342
 1168SOL    HW2 4699   2.565   7.141   3.881  0.2234  1.9319  0.3704
 1169SOL     OW 4700   0.318   0.191   5.865  0.0354  0.1621  0.4551
 1169SOL    HW1 4701   0.326   0.135   5.788  2.8012  2.9172 -1.5071
 1169SOL    HW2 4702   0.376   0.150   5.930 -0.9881 -1.2577  0.5264
 1170SOL     OW 4703   7.134   1.165   2.100  0.0331 -0.0682  0.0265
 1170SOL    HW1 4704   7.224   1.135   2.098 -0.0056 -0.1804 -0.0292
 1170SOL    HW2 4705   7.113   1.172   2.193 -0.4343 -1.6522  0.0637
 1171SOL     OW 4706   2.664   8.545   8.044 -0.2773  0.0298  0.2559
 1171SOL    HW1 4707   2.571   8.533   8.064  0.1110 -0.5729  1.8834
 1171SOL    HW2 4708   2.686   8.470   7.989 -0.1672 -1.4203  2.1591
 1172SOL     OW 4709   1.231   0.464   0.537  0.2062 -0.0390 -0.6387
 1172SOL    HW1 4710   1.151   0.412   0.531  0.0158 -0.4072  2.8407
 1172SOL    HW2 4711   1.296   0.415   0.487 -0.6947 -2.1434  0.1483
 1173SOL     OW 4712   5.903   6.418   8.355 -0.6341 -0.5393  0.2598
 1173SOL    HW1 4713   5.971   6.365   8.395  0.0694  0.0242 -0.1562
 1173SOL    HW2 4714   5.824   6.399   8.406 -0.0835 -0.9016  0.9960
 1174SOL     OW 4715   1.430   4.921   6.609  0.7140 -0.0128 -0.0127
 1174SOL    HW1 4716   1.397   4.835   6.583 -1.1135  1.1709 -1.8984
 1174SOL    HW2 4717   1.358   4.960   6.660  1.0489  0.8409 -0.1785
 1175SOL     OW 4718   3.791   0.436   6.492  0.1250  0.2070 -0.4568
 1175SOL    HW1 4719   3.868   0.462   6.441 -0.4658  3.2654 -0.0189
 1175SOL    HW2 4720   3.819   0.444   6.583  0.0876 -1.5623 -0.2592
 1176SOL     OW 4721   5.304   0.828   8.379  0.0305 -0.1958 -0.1841
 1176SOL    HW1 4722   5.331   0.790   8.463  0.6312 -0.0047 -0.2899
 1176SOL    HW2 4723   5.211   0.806   8.372  0.5109 -2.2974 -0.5707
 1177SOL     OW 4724   8.301   0.058   2.516 -0.1546  0.0594 -0.1188
 1177SOL    HW1 4725   8.341   0.001   2.582 -0.1543  0.3848  0.1667
 1177SOL    HW2 4726   8.370   0.072   2.451 -0.4471 -1.0232 -0.6867
 1178SOL     OW 4727   1.464   1.706   0.041  0.1184 -0.0062  0.0983
 1178SOL    HW1 4728   1.467   1.611   0.038 -1.0033 -0.0272 -1.4309
 1178SOL    HW2 4729   1.371   1.727   0.050  0.2116  0.9327 -0.8701
 1179SOL     OW 4730   0.147   4.053   7.864 -0.3431 -0.7389 -0.2512
 1179SOL    HW1 4731   0.231   4.012   7.841  0.6628  1.3106 -0.5386
 1179SOL    HW2 4732   0.172   4.132   7.912 -2.1616 -0.4531  0.2855
 1180SOL     OW 4733   8.503   6.798   5.721 -0.4895  0.6375 -0.5971
 1180SOL    HW1 4734   8.445   6.729   5.754  0.5479 -0.5411 -1.1789
 1180SOL    HW2 4735   8.555   6.756   5.654 -0.4703  2.2473 -1.6536
 1181SOL     OW 4736   4.030   1.644   3.984  0.5120 -0.4463  0.0194
 1181SOL    HW1 4737   4.025   1.556   4.021 -0.5535 -0.3664  0.0813
 1181SOL    HW2 4738   4.047   1.701   4.059  1.2149 -0.5876 -0.0228
 1182SOL     OW 4739   7.879   0.845   5.197  0.0344  0.4885  0.7988
 1182SOL    HW1 4740   7.969   0.841   5.228  1.1889 -0.4529 -2.2841
 1182SOL    HW2 4741   7.841   0.761   5.220  1.8625 -1.5206 -2.6583
 1183SOL     OW 4742   7.765   1.506   0.998  0.0666 -0.1817 -0.0376
 1183SOL    HW1 4743   7.745   1.443   1.068 -0.2166 -1.4573 -1.2118
 1183SOL    HW2 4744   7.696   1.491   0.933  1.0089  0.1199 -1.1361
 1184SOL     OW 4745   6.424   5.772   7.392  0.3374  0.0732 -0.1619
 1184SOL    HW1 4746   6.386   5.858   7.372  0.2617  0.5190  1.7039
 1184SOL    HW2 4747   6.513   5.776   7.359  0.1109  0.6009 -0.7196
 1185SOL     OW 4748   2.679   7.980   1.641  0.3661 -0.2391 -0.0244
 1185SOL    HW1 4749   2.758   8.020   1.605  0.2711 -0.8546 -0.9461
 1185SOL    HW2 4750   2.709   7.935   1.720  0.4102  1.9286  1.2880
 1186SOL     OW 4751   8.045   0.747   7.826 -0.4370 -0.0136  0.1098
 1186SOL    HW1 4752   8.044   0.687   7.900 -3.3817 -0.2755 -0.0482
 1186SOL    HW2 4753   8.087   0.698   7.755 -1.3557 -1.3125  0.4387
 1187SOL     OW 4754   7.742   6.660   6.382  0.7867 -0.1772 -0.3424
 1187SOL    HW1 4755   7.710   6.736   6.430  0.4172 -2.0520  2.6129
 1187SOL    HW2 4756   7.677   6.645   6.313 -0.6221  0.5610  0.7805
 1188SOL     OW 4757   3.199   3.283   5.635 -0.4415 -0.3618  0.4939
 1188SOL    HW1 4758   3.232   3.366   5.601  0.1107 -0.2467  1.2720
 1188SOL    HW2 4759   3.246   3.216   5.585 -0.8654 -0.2095 -0.1106
 1189SOL     OW 4760   8.523   4.916   7.204 -1.1052 -0.4560  1.1715
 1189SOL    HW1 4761   8.435   4.939   7.173 -0.6089 -0.5754 -0.4321
 1189SOL    HW2 4762   8.509   4.846   7.268 -2.2705  0.6262  2.1667
 1190SOL     OW 4763   6.915   1.965   1.673  0.4789  0.1628 -0.3951
 1190SOL    HW1 4764   6.858   1.905   1.626 -0.0916  0.2179  0.2145
 1190SOL    HW2 4765   6.973   2.001   1.606  0.7337 -0.9463 -0.7930
 1191SOL     OW 4766   1.299   3.695   0.563  0.0277  0.0132  0.0620
 1191SOL    HW1 4767   1.303   3.777   0.611 -2.0790  0.3098 -0.1799
 1191SOL    HW2 4768   1.320   3.628   0.628  2.8193  0.7293  0.0285
 1192SOL     OW 4769   6.330   1.258   5.984  0.2015 -0.7395  0.0269
 1192SOL    HW1 4770   6.393   1.325   6.009 -1.9403  1.2866  0.3419
 1192SOL    HW2 4771   6.363   1.226   5.899  1.5855  0.3032  0.1245
 1193SOL     OW 4772   7.368   0.117   6.147 -0.7717  0.1118 -0.1686
 1193SOL    HW1 4773   7.371   0.082   6.058  0.1148  0.3732 -0.2466
 1193SOL    HW2 4774   7.345   0.042   6.202  1.0359 -0.6044 -0.3350
 1194SOL     OW 4775   4.105   3.415   6.862 -0.1902  0.1014 -0.5953
 1194SOL    HW1 4776   4.023   3.451   6.831  0.0629  0.5670 -0.7239
 1194SOL    HW2 4777   4.162   3.490   6.876  0.2958 -0.2298 -0.7388
 1195SOL     OW 4778   3.052   4.835   7.689  0.2845  0.2193 -0.0282
 1195SOL    HW1 4779   3.027   4.921   7.656  1.1906  0.0474 -1.1952
 1195SOL    HW2 4780   3.131   4.851   7.741  1.6752 -0.1308 -1.9168
 1196SOL     OW 4781   2.680   3.475   4.165 -0.3950 -0.4414 -0.0984
 1196SOL    HW1 4782   2.656   3.385   4.146  2.6909 -1.6647  1.1142
 1196SOL    HW2 4783   2.635   3.495   4.247 -0.7058 -1.0682 -0.1118
 1197SOL     OW 4784   0.318   4.494   4.727 -0.1102 -0.1111 -0.0879
 1197SOL    HW1 4785   0.294   4.469   4.638  0.3651  2.3554 -0.9984
 1197SOL    HW2 4786   0.245   4.464   4.781 -3.0764  2.8137 -2.0891
 1198SOL     OW 4787   7.865   4.342   5.374 -0.1294 -0.1554  0.0091
 1198SOL    HW1 4788   7.811   4.415   5.342  2.3875  1.1682 -1.6277
 1198SOL    HW2 4789   7.869   4.281   5.301  1.4314  0.3363 -0.3623
 1199SOL     OW 4790   5.833   2.147   1.636  0.1477 -0.0924 -0.1899
 1199SOL    HW1 4791   5.904   2.084   1.627  0.4605  0.1101  0.7150
 1199SOL    HW2 4792   5.765   2.098   1.683  0.8558  0.5654  1.5923
 1200SOL     OW 4793   0.909   6.812   4.670 -0.6069 -0.3012  0.2715
 1200SOL    HW1 4794   0.958   6.849   4.742 -0.0954 -1.4406  0.5411
 1200SOL    HW2 4795   0.937   6.862   4.593 -0.8335  0.6298  0.7844
 1201SOL     OW 4796   5.085   0.568   6.468 -0.7699  0.5274  0.5861
 1201SOL    HW1 4797   5.166   0.522   6.489 -1.0659 -0.7792 -0.9188
 1201SOL    HW2 4798   5.096   0.596   6.377 -1.7446  0.9488  0.5814
 1202SOL     OW 4799   1.610   0.518   6.743 -0.3407 -0.5312  0.2338
 1202SOL    HW1 4800   1.580   0.430   6.766 -1.8888  0.2855  1.4772
 1202SOL    HW2 4801   1.612   0.565   6.826 -0.0991  0.7948 -0.5021
 1203SOL     OW 4802   8.556   8.150   8.243 -0.4035  0.3161 -0.0365
 1203SOL    HW1 4803   8.497   8.225   8.230  1.2783  2.0924  1.7869
 1203SOL    HW2 4804   8.553   8.133   8.337  0.4209 -0.9177 -0.2072
 1204SOL     OW 4805   4.728   5.610   2.221 -0.1223 -0.2745 -0.3117
 1204SOL    HW1 4806   4.696   5.524   2.192  1.3328 -0.3646 -1.8054
 1204SOL    HW2 4807   4.674   5.672   2.172  0.4229 -0.3878 -1.0703
 1205SOL     OW 4808   7.221   5.898   6.517  0.4326  0.0122 -0.2038
 1205SOL    HW1 4809   7.295   5.902   6.577  0.3727 -0.5816 -0.0891
 1205SOL    HW2 4810   7.219   5.985   6.476 -0.5818  1.0453  1.8807
 1206SOL     OW 4811   2.542   1.798   3.427 -0.3054  0.2002 -0.0277
 1206SOL    HW1 4812   2.507   1.879   3.465 -0.2100  0.4112 -0.3840
 1206SOL    HW2 4813   2.516   1.729   3.489  1.3653  0.7406  1.3551
 1207SOL     OW 4814   3.841   7.212   2.509 -0.0963  0.3103 -0.3727
 1207SOL    HW1 4815   3.841   7.292   2.560 -2.7327 -0.2675  0.6793
 1207SOL    HW2 4816   3.903   7.154   2.553  1.1910  1.4305 -0.6589
 1208SOL     OW 4817   8.240   2.295   0.759  0.3483  0.3137  0.0285
 1208SOL    HW1 4818   8.233   2.308   0.854  0.2390 -0.7546  0.1816
 1208SOL    HW2 4819   8.206   2.376   0.721  0.1102  0.6355  0.8986
 1209SOL     OW 4820   6.163   1.809   7.989 -0.7526 -1.0350  0.1012
 1209SOL    HW1 4821   6.133   1.794   7.900 -1.3698  0.9066 -0.0658
 1209SOL    HW2 4822   6.256   1.786   7.988 -0.8510 -1.3935 -0.9425
 1210SOL     OW 4823   5.765   1.575   2.038 -0.1414  0.1414  0.4061
 1210SOL    HW1 4824   5.759   1.645   1.974  0.6919 -0.3736 -0.2586
 1210SOL    HW2 4825   5.679   1.532   2.034 -0.3363  0.5475  0.1498
 1211SOL     OW 4826   5.883   6.387   2.132  0.6882 -0.2323 -0.2862
 1211SOL    HW1 4827   5.918   6.307   2.094  0.0827 -1.1854  1.1003
 1211SOL    HW2 4828   5.925   6.394   2.217 -1.6446 -0.8630  0.9922
 1212SOL     OW 4829   2.935   4.600   1.057 -0.1401 -0.3395 -0.0263
 1212SOL    HW1 4830   2.882   4.537   1.008  0.2535 -1.6418  1.1473
 1212SOL    HW2 4831   3.025   4.567   1.050 -0.0720 -0.5823  1.5228
 1213SOL     OW 4832   4.722   7.717   6.395  0.1452  0.2435 -0.2570
 1213SOL    HW1 4833   4.633   7.689   6.376 -0.5253  1.5254  0.8209
 1213SOL    HW2 4834   4.778   7.651   6.354 -1.2893 -2.3992  1.7710
 1214SOL     OW 4835   4.464   6.113   0.118  0.4033  0.3373 -0.2164
 1214SOL    HW1 4836   4.485   6.053   0.046  0.5310 -0.3613  0.4009
 1214SOL    HW2 4837   4.407   6.179   0.078 -1.3494 -1.2643 -0.4891
 1215SOL     OW 4838   1.156   3.332   0.526 -0.0185 -0.5458  0.2285
 1215SOL    HW1 4839   1.074   3.283   0.530  0.4140 -1.4949 -1.2950
 1215SOL    HW2 4840   1.155   3.373   0.439  0.7445  0.1046  0.5175
 1216SOL     OW 4841   4.078   4.493   1.825  0.1680 -0.0072 -0.0362
 1216SOL    HW1 4842   4.173   4.494   1.837  0.0008  0.3757  1.3893
 1216SOL    HW2 4843   4.050   4.408   1.858  0.1113 -0.5617 -1.4483
 1217SOL     OW 4844   4.087   1.486   6.964  0.3968 -0.3527 -0.1045
 1217SOL    HW1 4845   4.008   1.453   6.920 -0.0273  0.3315  0.1332
 1217SOL    HW2 4846   4.076   1.460   7.055  1.4933 -2.1769 -0.4355
 1218SOL     OW 4847   3.975   0.402   6.848  0.3603 -0.3801  0.1244
 1218SOL    HW1 4848   3.999   0.485   6.890 -2.0249 -0.0208  0.9498
 1218SOL    HW2 4849   4.040   0.391   6.779  1.8337  1.2402  1.1500
 1219SOL     OW 4850   2.260   7.318   7.772  0.6893 -0.7722  0.1985
 1219SOL    HW1 4851   2.209   7.308   7.692 -0.0470 -0.8689  0.6673
 1219SOL    HW2 4852   2.348   7.341   7.742 -0.0714  1.3038 -0.5606
 1220SOL     OW 4853   4.415   3.053   3.718  0.0283  0.2891 -0.0677
 1220SOL    HW1 4854   4.362   2.987   3.763  1.1792 -1.4525 -1.1391
 1220SOL    HW2 4855   4.354   3.125   3.700 -1.2317 -0.3922  1.2948
 1221SOL     OW 4856   0.484   7.320   5.519 -0.3621  0.3216 -0.8423
 1221SOL    HW1 4857   0.393   7.290   5.527 -0.2721  0.2905  0.1318
 1221SOL    HW2 4858   0.536   7.240   5.524 -0.2920  0.2574 -2.1167
 1222SOL     OW 4859   6.173   2.166   5.718  0.2847  0.3388 -0.1439
 1222SOL    HW1 4860   6.123   2.220   5.656  0.4218  0.9293  0.2571
 1222SOL    HW2 4861   6.233   2.116   5.662  1.7867  2.3031 -0.3908
 1223SOL     OW 4862   5.888   0.335   2.328 -0.3228 -0.1081  0.0576
 1223SOL    HW1 4863   5.917   0.399   2.263 -0.8455  0.7454  0.6473
 1223SOL    HW2 4864   5.793   0.331   2.318 -0.4291  0.1353  0.8385
 1224SOL     OW 4865   7.698   4.950   3.936  0.0174  0.5619  0.0042
 1224SOL    HW1 4866   7.609   4.939   3.902 -0.3303  2.3816  0.2163
 1224SOL    HW2 4867   7.687   4.997   4.018  1.1935  1.1236 -0.1368
 1225SOL     OW 4868   0.727   6.488   8.410 -0.1599 -0.1273  0.3902
 1225SOL    HW1 4869   0.783   6.439   8.350  2.3882  0.3066  2.2720
 1225SOL    HW2 4870   0.754   6.580   8.399  1.4324 -0.1668  3.0949
 1226SOL     OW 4871   0.684   6.806   2.805  0.1321  0.0087 -0.2295
 1226SOL    HW1 4872   0.616   6.852   2.756  0.4338 -0.2145 -0.8684
 1226SOL    HW2 4873   0.750   6.783   2.739  0.4746 -0.4298  0.2558
 1227SOL     OW 4874   2.408   6.220   5.475  0.2526  0.3369 -0.0367
 1227SOL    HW1 4875   2.319   6.206   5.509 -0.1122  0.3895 -0.9598
 1227SOL    HW2 4876   2.396   6.272   5.396  1.1323  0.5752 -0.0169
 1228SOL     OW 4877   1.100   8.517   4.495  0.3029  0.2300 -0.0029
 1228SOL    HW1 4878   1.058   8.432   4.509  0.5390 -0.0106 -0.7091
 1228SOL    HW2 4879   1.095   8.560   4.580 -0.4191 -0.2214  0.1908
 1229SOL     OW 4880   5.445   5.039   5.916  0.3736 -0.3263 -0.7096
 1229SOL    HW1 4881   5.520   4.993   5.955 -0.1660 -1.3444 -0.8488
 1229SOL    HW2 4882   5.473   5.131   5.913  0.8568 -0.3712  1.0825
 1230SOL     OW 4883   3.135   5.764   2.825 -0.2985  0.3970  0.9355
 1230SOL    HW1 4884   3.069   5.697   2.805  1.3285 -0.2663 -3.1803
 1230SOL    HW2 4885   3.088   5.847   2.815 -1.1973 -0.0932  0.9747
 1231SOL     OW 4886   3.660   1.429   6.668  0.6092 -0.0152  0.0231
 1231SOL    HW1 4887   3.606   1.490   6.618 -0.7988 -0.4364  0.9637
 1231SOL    HW2 4888   3.602   1.356   6.688  1.6948 -0.7464  0.6215
 1232SOL     OW 4889   2.662   3.480   6.512  0.0457 -0.0084 -0.3972
 1232SOL    HW1 4890   2.710   3.404   6.546 -1.7369 -1.1100 -0.2276
 1232SOL    HW2 4891   2.597   3.500   6.579  0.1096  1.3266 -0.7009
 1233SOL     OW 4892   3.742   0.588   6.217  0.0957  0.8019 -0.4415
 1233SOL    HW1 4893   3.678   0.541   6.270  0.3946  0.6876 -0.1814
 1233SOL    HW2 4894   3.706   0.586   6.128 -0.3600  0.9135 -0.2628
 1234SOL     OW 4895   0.092   7.041   0.495 -0.2539  1.1676 -0.0120
 1234SOL    HW1 4896   0.162   7.100   0.524  0.7106 -0.6470  1.5844
 1234SOL    HW2 4897   0.112   7.024   0.403 -0.0996  2.6876 -0.2803
 1235SOL     OW 4898   5.486   1.109   3.189 -0.0240  0.0797  0.4456
 1235SOL    HW1 4899   5.509   1.155   3.269 -1.1359  0.3920  0.6089
 1235SOL    HW2 4900   5.446   1.027   3.219  0.5749 -0.3155  0.1845
 1236SOL     OW 4901   0.532   1.027   5.385 -0.1162 -0.5818 -0.2873
 1236SOL    HW1 4902   0.561   1.087   5.453  0.3571 -0.4922 -0.5666
 1236SOL    HW2 4903   0.566   0.942   5.412 -2.4328 -1.1334  1.1445
 1237SOL     OW 4904   3.509   3.950   7.853 -0.4130 -0.0195  0.3307
 1237SOL    HW1 4905   3.511   4.045   7.858 -2.4342  0.0743 -0.1513
 1237SOL    HW2 4906   3.553   3.929   7.770  0.1756  0.4677  0.5145
 1238SOL     OW 4907   1.766   6.595   6.543 -0.4716  0.4850 -0.3146
 1238SOL    HW1 4908   1.710   6.574   6.467 -0.8079 -0.4193  0.1672
 1238SOL    HW2 4909   1.730   6.677   6.577 -2.1168 -0.5202  0.5230
 1239SOL     OW 4910   2.952   0.549   7.540  1.3392 -0.2590 -0.0155
 1239SOL    HW1 4911   2.951   0.473   7.482  0.3196 -1.4818  1.5063
 1239SOL    HW2 4912   3.004   0.521   7.615  0.3228  0.2532  0.9112
 1240SOL     OW 4913   1.756   5.148   3.915  0.2002 -0.0814 -0.0466
 1240SOL    HW1 4914   1.746   5.233   3.957  1.0554  0.1782 -0.3469
 1240SOL    HW2 4915   1.691   5.092   3.958 -0.1210  0.6268  0.4023
 1241SOL     OW 4916   8.503   4.022   4.136 -0.1797  0.3108 -0.1500
 1241SOL    HW1 4917   8.552   3.954   4.183  0.6270  1.5597  0.8877
 1241SOL    HW2 4918   8.411   3.995   4.144 -0.0089  0.1301  1.5898
 1242SOL     OW 4919   7.493   2.335   2.262  0.3786  0.4926 -0.0646
 1242SOL    HW1 4920   7.411   2.325   2.310  0.1778  2.0330 -0.0334
 1242SOL    HW2 4921   7.552   2.271   2.302 -1.6329 -3.0613 -2.2013
 1243SOL     OW 4922   4.813   5.285   1.665  0.7430  0.1602  0.5271
 1243SOL    HW1 4923   4.858   5.289   1.580  1.2756 -0.6217  0.7564
 1243SOL    HW2 4924   4.771   5.370   1.674  0.3632  0.1155 -0.6960
 1244SOL     OW 4925   4.246   5.403   7.365  0.4970  0.1068 -0.0780
 1244SOL    HW1 4926   4.326   5.386   7.415 -0.0282  0.7285  1.0075
 1244SOL    HW2 4927   4.176   5.365   7.418  0.0981 -0.7871 -1.2156
 1245SOL     OW 4928   4.686   5.383   6.227  0.1527 -0.6025  0.3420
 1245SOL    HW1 4929   4.751   5.414   6.165  1.0596 -0.6501  1.2425
 1245SOL    HW2 4930   4.683   5.450   6.295 -1.3034 -0.2307 -0.0647
 1246SOL     OW 4931   3.124   5.986   7.722 -0.3690 -0.5856 -0.3493
 1246SOL    HW1 4932   3.031   5.969   7.710 -0.6765 -0.4579  1.4917
 1246SOL    HW2 4933   3.160   5.904   7.755 -0.2406 -0.1100  0.7587
 1247SOL     OW 4934   6.062   0.735   7.106  0.2646  0.0055  0.2090
 1247SOL    HW1 4935   6.074   0.701   7.194  1.0122 -0.4934 -0.0698
 1247SOL    HW2 4936   6.028   0.661   7.056  1.6848 -0.3082 -0.3481
 1248SOL     OW 4937   4.440   2.857   6.727 -0.4403  0.1155 -0.4894
 1248SOL    HW1 4938   4.506   2.867   6.658  0.9478  3.2330  1.0647
 1248SOL    HW2 4939   4.387   2.937   6.721 -1.1183 -0.1615  1.1928
 1249SOL     OW 4940   8.186   5.192   1.297  0.2023  0.3263 -0.3413
 1249SOL    HW1 4941   8.204   5.271   1.348  0.7667 -1.1260  1.8492
 1249SOL    HW2 4942   8.272   5.156   1.275 -0.0394  0.6626 -1.9644
 1250SOL     OW 4943   7.959   2.865   3.278 -0.0121  0.1937  0.7797
 1250SOL    HW1 4944   7.986   2.830   3.363  0.7659  2.4316  1.5288
 1250SOL    HW2 4945   7.943   2.958   3.294  0.1245  0.6782 -1.5135
 1251SOL     OW 4946   2.512   5.742   7.541 -0.4655  0.4593 -0.2831
 1251SOL    HW1 4947   2.469   5.656   7.538 -0.8098  0.5071  1.7853
 1251SOL    HW2 4948   2.447   5.799   7.582 -0.2734  1.7686 -1.7059
 1252SOL     OW 4949   1.046   4.652   8.403  0.2978 -0.1451  0.5166
 1252SOL    HW1 4950   1.100   4.627   8.478 -0.8467  0.7401  1.6751
 1252SOL    HW2 4951   1.103   4.639   8.327  1.0401 -2.4087  1.3845
 1253SOL     OW 4952   8.079   6.275   8.359  0.5140 -0.1418  0.2143
 1253SOL    HW1 4953   8.002   6.234   8.398 -2.1378  2.8813 -1.3164
 1253SOL    HW2 4954   8.063   6.369   8.369  3.7642  0.6490 -0.7792
 1254SOL     OW 4955   3.185   2.711   7.589 -0.2686  0.6092  0.1819
 1254SOL    HW1 4956   3.158   2.757   7.510  0.7346  0.8282 -0.0500
 1254SOL    HW2 4957   3.108   2.662   7.616 -0.8683  1.1696 -0.4738
 1255SOL     OW 4958   2.834   7.747   7.651  0.6121  0.0166  0.2406
 1255SOL    HW1 4959   2.765   7.733   7.716  0.8868 -3.5335 -0.0209
 1255SOL    HW2 4960   2.788   7.769   7.570 -0.1824 -1.1717  0.3425
 1256SOL     OW 4961   2.211   2.400   4.138  0.1251  0.0057 -0.1115
 1256SOL    HW1 4962   2.230   2.318   4.092  1.6095 -0.4566  1.2414
 1256SOL    HW2 4963   2.297   2.440   4.153 -0.5700  1.8506 -0.7600
 1257SOL     OW 4964   0.366   6.541   0.472 -0.1393  0.0585 -0.2102
 1257SOL    HW1 4965   0.366   6.466   0.532 -2.1303  0.8491  0.8913
 1257SOL    HW2 4966   0.358   6.503   0.385 -3.3649 -1.0563  0.4466
 1258SOL     OW 4967   6.465   0.107   0.845  0.1138  0.3669 -0.0323
 1258SOL    HW1 4968   6.421   0.182   0.805 -0.8873 -1.7388 -3.2526
 1258SOL    HW2 4969   6.540   0.090   0.788  0.5215 -0.8835  0.8242
 1259SOL     OW 4970   1.256   1.211   5.452  0.4832  0.0441  0.1279
 1259SOL    HW1 4971   1.232   1.159   5.529  0.1990 -1.4826 -0.9635
 1259SOL    HW2 4972   1.173   1.243   5.418  0.4568 -0.5642 -0.4076
 1260SOL     OW 4973   3.579   1.122   3.077 -0.2737 -0.4504  0.2013
 1260SOL    HW1 4974   3.653   1.062   3.068  0.7896  1.1054 -2.2505
 1260SOL    HW2 4975   3.508   1.078   3.030 -0.6660 -1.4541  1.6528
 1261SOL     OW 4976   4.949   3.492   0.077  0.0752 -0.0942 -0.2088
 1261SOL    HW1 4977   4.996   3.496  -0.006 -0.7722  0.9510 -0.6609
 1261SOL    HW2 4978   4.891   3.417   0.070  0.0378 -0.0321 -0.5357
 1262SOL     OW 4979   3.133   6.963   6.964 -0.0090  0.0605 -0.2283
 1262SOL    HW1 4980   3.178   6.881   6.982 -0.7551 -1.0333 -2.9850
 1262SOL    HW2 4981   3.043   6.947   6.992 -0.1189  0.0086 -0.6168
 1263SOL     OW 4982   5.850   2.987   6.648  0.0339 -0.4583 -0.4503
 1263SOL    HW1 4983   5.902   3.050   6.699 -1.6217  1.4013 -0.9182
 1263SOL    HW2 4984   5.881   2.998   6.558  0.4587 -1.1075 -0.3909
 1264SOL     OW 4985   6.375   6.801   7.106 -0.6234 -0.3560 -0.3836
 1264SOL    HW1 4986   6.318   6.776   7.034  1.2355 -0.5434 -1.8631
 1264SOL    HW2 4987   6.451   6.743   7.100  0.1719  0.4610  0.9340
 1265SOL     OW 4988   5.391   6.499   3.390  0.7767 -0.2171  0.8989
 1265SOL    HW1 4989   5.386   6.435   3.320  1.6829  0.3403  0.2986
 1265SOL    HW2 4990   5.485   6.513   3.403  0.6033  0.9064  1.0810
 1266SOL     OW 4991   4.612   4.885   0.923  0.1362 -0.6259  0.1286
 1266SOL    HW1 4992   4.567   4.968   0.908 -0.4863 -0.7867  1.0245
 1266SOL    HW2 4993   4.648   4.862   0.837 -0.3559  0.1743 -0.3091
 1267SOL     OW 4994   5.392   5.455   2.703  0.1548 -0.3115 -0.2163
 1267SOL    HW1 4995   5.375   5.548   2.695  0.2620 -0.3881 -1.4212
 1267SOL    HW2 4996   5.312   5.419   2.743 -0.7974 -0.0287 -1.8015
 1268SOL     OW 4997   5.513   3.313   5.365 -0.3004  0.0825 -0.3816
 1268SOL    HW1 4998   5.561   3.366   5.429  0.8566  1.5612 -2.3458
 1268SOL    HW2 4999   5.476   3.241   5.416  0.1468  1.4326  2.0027
 1269SOL     OW 5000   4.544   2.197   3.861 -0.6382  0.2070  0.4273
 1269SOL    HW1 5001   4.502   2.112   3.859  0.6415 -0.5613  2.5753
 1269SOL    HW2 5002   4.606   2.195   3.788 -0.6789 -0.6747  0.4084
 1270SOL     OW 5003   2.912   2.032   7.087 -0.3330  0.0116 -0.0114
 1270SOL    HW1 5004   2.836   1.991   7.046 -2.1198  0.1720  2.9267
 1270SOL    HW2 5005   2.968   1.958   7.112 -1.2782 -0.3697  1.0368
 1271SOL     OW 5006   4.937   0.190   5.985 -0.4802  0.2428  0.4154
 1271SOL    HW1 5007   4.896   0.235   5.911 -0.3246  1.3654  0.9985
 1271SOL    HW2 5008   4.981   0.115   5.945  2.1885  2.4426 -1.1562
 1272SOL     OW 5009   1.545   1.000   3.047 -0.4468 -0.0060 -0.7147
 1272SOL    HW1 5010   1.470   1.039   3.092 -0.5384 -0.0667 -0.8166
 1272SOL    HW2 5011   1.593   1.074   3.011 -0.6547  0.0072 -0.9613
 1273SOL     OW 5012   5.115   4.145   8.069  0.0693 -0.0376 -0.0527
 1273SOL    HW1 5013   5.204   4.170   8.045 -0.7402  0.9228 -2.3529
 1273SOL    HW2 5014   5.123   4.055   8.101  1.9604  0.3222  0.6180
 1274SOL     OW 5015   0.842   6.995   7.600 -0.1602  0.5628 -0.4994
 1274SOL    HW1 5016   0.883   6.919   7.641  0.1874  0.2823 -1.3503
 1274SOL    HW2 5017   0.761   7.007   7.649  0.6882  0.8278  0.8895
 1275SOL     OW 5018   5.018   5.061   7.016 -0.4136 -0.1825  1.0052
 1275SOL    HW1 5019   4.981   5.057   7.104  0.8824  0.4025  1.5926
 1275SOL    HW2 5020   5.034   4.970   6.992 -0.4683 -0.3243  1.5080
 1276SOL     OW 5021   6.684   3.514   6.883 -0.3801  0.2402 -0.6119
 1276SOL    HW1 5022   6.613   3.450   6.881 -1.7547  1.5707  1.6985
 1276SOL    HW2 5023   6.645   3.595   6.850 -0.0567  1.0494  0.9092
 1277SOL     OW 5024   2.500   8.342   3.996 -0.4873 -0.1659  0.2925
 1277SOL    HW1 5025   2.404   8.343   3.991 -0.5690 -1.0614  1.2582
 1277SOL    HW2 5026   2.528   8.316   3.908 -1.2303 -1.7936  0.4979
 1278SOL     OW 5027   2.039   8.596   4.142  0.3341 -0.3473 -0.4042
 1278SOL    HW1 5028   2.112   8.656   4.151 -0.1349  0.4978 -1.9918
 1278SOL    HW2 5029   1.996   8.621   4.061 -0.6903 -1.9585 -0.4115
 1279SOL     OW 5030   3.613   6.133   0.519 -0.1559  0.2887  0.0570
 1279SOL    HW1 5031   3.678   6.090   0.574  1.0777  1.4618 -0.4314
 1279SOL    HW2 5032   3.555   6.179   0.581 -0.5083 -0.7066  0.4863
 1280SOL     OW 5033   3.005   0.669   7.291  0.0454 -0.4223  0.0090
 1280SOL    HW1 5034   2.996   0.622   7.374 -2.0400 -0.4385 -0.1823
 1280SOL    HW2 5035   2.919   0.708   7.276  0.7737  0.7130 -1.4853
 1281SOL     OW 5036   5.763   2.548   7.433 -0.4663 -0.1305 -0.0187
 1281SOL    HW1 5037   5.778   2.639   7.460  1.2380 -1.1643  2.8995
 1281SOL    HW2 5038   5.671   2.532   7.453 -1.0395  1.1439 -1.3999
 1282SOL     OW 5039   5.409   1.107   1.631 -0.2596 -0.6230 -0.3771
 1282SOL    HW1 5040   5.454   1.146   1.557 -2.1090  0.1973 -1.1406
 1282SOL    HW2 5041   5.396   1.015   1.607  0.2081 -0.6475 -0.5359
 1283SOL     OW 5042   7.112   1.320   8.556  0.3072 -0.2938  0.1572
 1283SOL    HW1 5043   7.159   1.327   8.473  0.5983  0.9736  0.4097
 1283SOL    HW2 5044   7.101   1.226   8.569 -1.8788 -0.5278 -2.4734
 1284SOL     OW 5045   8.325   3.556   2.937  0.1944 -0.3476  0.3676
 1284SOL    HW1 5046   8.420   3.555   2.954  0.1573  2.5552  1.2804
 1284SOL    HW2 5047   8.300   3.464   2.937  2.9319 -1.1819  0.6237
 1285SOL     OW 5048   5.794   0.918   4.792  0.0103 -0.1560  0.4618
 1285SOL    HW1 5049   5.878   0.950   4.762 -1.4537  0.0701 -4.2522
 1285SOL    HW2 5050   5.738   0.995   4.798 -0.7456 -0.6542  0.0535
 1286SOL     OW 5051   3.256   4.840   2.474  0.2906 -0.3620 -0.6030
 1286SOL    HW1 5052   3.316   4.911   2.454 -0.9614  0.6286 -0.9959
 1286SOL    HW2 5053   3.208   4.825   2.392 -2.4642  1.3532  0.5466
 1287SOL     OW 5054   1.706   6.090   1.044  0.4118  0.4234 -0.6778
 1287SOL    HW1 5055   1.696   6.160   0.980  0.9617  0.9482 -0.2001
 1287SOL    HW2 5056   1.689   6.131   1.129 -1.2104 -0.4684 -0.5292
 1288SOL     OW 5057   3.097   6.350   8.509  0.2146 -0.6070 -0.0845
 1288SOL    HW1 5058   3.178   6.302   8.528 -0.5253 -1.1613  1.9345
 1288SOL    HW2 5059   3.027   6.295   8.544 -1.0887 -0.1754 -1.8619
 1289SOL     OW 5060   4.357   5.284   2.891  0.0535  0.2998 -0.0895
 1289SOL    HW1 5061   4.365   5.365   2.941 -1.0982  0.0434  0.5284
 1289SOL    HW2 5062   4.263   5.270   2.882  0.2259 -1.1034  0.0476
 1290SOL     OW 5063   3.010   6.207   4.671 -0.1647  0.0183  0.2849
 1290SOL    HW1 5064   2.963   6.242   4.747  0.8014 -0.4047  1.0928
 1290SOL    HW2 5065   3.049   6.126   4.702 -1.4265 -1.2522 -1.2546
 1291SOL     OW 5066   4.189   0.321   6.655  0.0418  0.0751 -0.4406
 1291SOL    HW1 5067   4.149   0.287   6.575  0.2033 -1.3620  0.0550
 1291SOL    HW2 5068   4.271   0.361   6.625 -0.7261  1.1259 -1.1917
 1292SOL     OW 5069   7.284   2.408   5.931 -0.9139  0.0695 -0.6012
 1292SOL    HW1 5070   7.321   2.328   5.893 -1.1939 -0.0216 -0.6884
 1292SOL    HW2 5071   7.315   2.408   6.022 -0.5637  0.0852 -0.7200
 1293SOL     OW 5072   7.728   3.599   1.885  0.0678  0.2852  0.1699
 1293SOL    HW1 5073   7.730   3.532   1.954 -0.4255 -0.7957 -0.8215
 1293SOL    HW2 5074   7.760   3.678   1.927 -0.0966 -0.3791  1.6059
 1294SOL     OW 5075   8.429   1.223   5.875 -0.3053  0.3439 -0.0734
 1294SOL    HW1 5076   8.419   1.216   5.780 -1.0591  1.2109 -0.0793
 1294SOL    HW2 5077   8.497   1.289   5.887  0.4977 -0.4833 -0.0043
 1295SOL     OW 5078   5.249   3.489   0.772  0.2110 -0.1650 -0.3015
 1295SOL    HW1 5079   5.188   3.435   0.721  0.3971 -0.1580 -0.5350
 1295SOL    HW2 5080   5.192   3.544   0.827  0.0309 -0.8348  0.1903
 1296SOL     OW 5081   2.181   6.888   7.778  0.4340  0.2395  0.6444
 1296SOL    HW1 5082   2.263   6.868   7.824  1.1201  0.4025 -0.4809
 1296SOL    HW2 5083   2.204   6.887   7.685 -1.2821 -1.7607  0.1650
 1297SOL     OW 5084   3.924   4.292   1.603 -0.2646  0.7939  0.1834
 1297SOL    HW1 5085   3.898   4.268   1.514  0.5540 -0.4335  0.2459
 1297SOL    HW2 5086   4.015   4.261   1.610 -0.1377  1.3632  1.2735
 1298SOL     OW 5087   0.363   3.201   2.371  0.2905 -0.6637 -0.1773
 1298SOL    HW1 5088   0.330   3.264   2.307 -0.9026 -1.2634 -0.1777
 1298SOL    HW2 5089   0.383   3.254   2.448  1.9716  0.1048 -1.0836
 1299SOL     OW 5090   2.855   7.423   6.311 -0.2691  0.2568  1.1610
 1299SOL    HW1 5091   2.864   7.336   6.350 -1.2853  0.0750  1.0255
 1299SOL    HW2 5092   2.934   7.434   6.258 -0.9223 -1.3630 -0.2812
 1300SOL     OW 5093   7.379   8.386   4.321  0.2734 -0.3849 -0.1559
 1300SOL    HW1 5094   7.306   8.341   4.363  0.6713  0.1744  1.2012
 1300SOL    HW2 5095   7.411   8.324   4.255 -1.3142 -0.6895 -0.6736
 1301SOL     OW 5096   8.229   2.983   0.128 -0.3186 -0.5935  0.3120
 1301SOL    HW1 5097   8.317   2.965   0.162 -0.0874 -0.5553 -0.2644
 1301SOL    HW2 5098   8.234   2.961   0.035 -0.7180  0.1155  0.1196
 1302SOL     OW 5099   0.794   5.347   0.930  0.1765  0.0256 -0.2322
 1302SOL    HW1 5100   0.741   5.297   0.992  0.3076 -0.2505 -0.3422
 1302SOL    HW2 5101   0.799   5.292   0.852  0.9537 -0.1373 -0.0797
 1303SOL     OW 5102   0.787   1.228   2.734 -0.4520 -0.0850 -0.9963
 1303SOL    HW1 5103   0.716   1.281   2.769 -0.7599 -1.6192  0.8455
 1303SOL    HW2 5104   0.745   1.147   2.706  0.3118 -0.2706 -1.6453
 1304SOL     OW 5105   7.869   7.785   3.745 -0.6800 -0.9437  0.5752
 1304SOL    HW1 5106   7.861   7.855   3.810 -2.6697  1.0784 -1.6474
 1304SOL    HW2 5107   7.781   7.776   3.709  0.0523 -2.9997 -0.8833
 1305SOL     OW 5108   3.693   8.254   2.322 -0.1410  0.6599 -0.5077
 1305SOL    HW1 5109   3.743   8.292   2.250 -0.9573 -0.0281 -1.4549
 1305SOL    HW2 5110   3.664   8.170   2.289 -1.5797  0.8650  0.1743
 1306SOL     OW 5111   5.078   6.913   6.843  0.3625  0.2903 -0.6251
 1306SOL    HW1 5112   5.075   6.830   6.891 -1.1173  2.4812  3.6902
 1306SOL    HW2 5113   4.988   6.926   6.812  0.0873  1.0544  0.4226
 1307SOL     OW 5114   0.592   2.677   8.060  0.2183  0.0808 -0.7827
 1307SOL    HW1 5115   0.656   2.614   8.095 -0.8054  0.2933  1.7169
 1307SOL    HW2 5116   0.508   2.648   8.096 -0.4817  2.0802 -0.6712
 1308SOL     OW 5117   1.611   4.911   4.762 -0.6172 -0.3205  0.3675
 1308SOL    HW1 5118   1.680   4.856   4.799  0.2322  0.8977  0.6187
 1308SOL    HW2 5119   1.548   4.921   4.833 -0.5434 -0.5801  0.4715
 1309SOL     OW 5120   6.530   3.783   7.130  0.0552 -0.3180 -0.0682
 1309SOL    HW1 5121   6.620   3.765   7.101  0.1487  1.2283 -0.8390
 1309SOL    HW2 5122   6.523   3.879   7.128 -1.9937 -0.4444 -1.2352
 1310SOL     OW 5123   1.739   3.222   8.351 -0.5784  0.0713  0.3623
 1310SOL    HW1 5124   1.669   3.240   8.413 -0.5539  0.3356  0.3160
 1310SOL    HW2 5125   1.775   3.137   8.378 -0.4932  0.2377  0.7769
 1311SOL     OW 5126   0.317   4.277   3.213 -0.2957 -0.2863 -0.0674
 1311SOL    HW1 5127   0.315   4.370   3.235  0.0956 -0.3137  0.0960
 1311SOL    HW2 5128   0.381   4.239   3.273  1.6497 -0.1844 -1.9712
 1312SOL     OW 5129   5.312   4.646   1.709 -0.2612  0.0366 -0.3110
 1312SOL    HW1 5130   5.337   4.726   1.664 -0.1934  0.1928 -0.0008
 1312SOL    HW2 5131   5.248   4.604   1.651 -0.0327  0.1375 -0.6379
 1313SOL     OW 5132   0.942   0.036   5.661 -0.5129 -0.5471  0.1055
 1313SOL    HW1 5133   1.035   0.017   5.670 -0.3860 -0.6423 -1.2086
 1313SOL    HW2 5134   0.939   0.122   5.618 -0.9622 -1.5609 -2.0283
 1314SOL     OW 5135   7.717   4.621   3.646  0.3434 -0.5214  0.0271
 1314SOL    HW1 5136   7.642   4.594   3.699  0.6610 -0.0222  0.7419
 1314SOL    HW2 5137   7.793   4.579   3.688  0.4906 -0.9053 -0.6026
 1315SOL     OW 5138   5.919   0.300   2.763  0.3824 -0.4398 -0.0728
 1315SOL    HW1 5139   6.013   0.308   2.747 -0.0557  2.7814 -2.0760
 1315SOL    HW2 5140   5.911   0.282   2.856  2.9951  1.2228  0.5692
 1316SOL     OW 5141   3.275   0.370   7.614 -0.0419  0.5320  0.5106
 1316SOL    HW1 5142   3.245   0.305   7.551 -0.2390 -0.4279  1.5612
 1316SOL    HW2 5143   3.197   0.393   7.664 -0.1350  2.1576 -0.3236
 1317SOL     OW 5144   2.161   2.243   2.316 -0.1034  0.0485 -0.2101
 1317SOL    HW1 5145   2.227   2.297   2.360 -2.1790  2.3276  0.3088
 1317SOL    HW2 5146   2.147   2.285   2.231 -0.6554 -0.6029 -0.4522
 1318SOL     OW 5147   0.290   2.501   3.858  0.0971  0.3614 -0.0901
 1318SOL    HW1 5148   0.221   2.540   3.911 -0.9100 -1.3392 -0.0802
 1318SOL    HW2 5149   0.290   2.408   3.882  2.0194  0.2138 -0.5038
 1319SOL     OW 5150   3.712   0.853   4.330  0.4903 -0.0328  0.2427
 1319SOL    HW1 5151   3.748   0.765   4.322  1.7987  0.6252 -1.4812
 1319SOL    HW2 5152   3.634   0.841   4.385 -0.3481 -2.5345 -1.3068
 1320SOL     OW 5153   2.034   2.258   8.434 -0.0159 -0.5546  0.9268
 1320SOL    HW1 5154   2.096   2.187   8.413 -0.5066 -1.0162  1.0076
 1320SOL    HW2 5155   2.077   2.307   8.504  0.2775 -0.8527  0.9617
 1321SOL     OW 5156   3.329   8.474   2.568 -0.3280  0.1363 -0.6579
 1321SOL    HW1 5157   3.346   8.521   2.486 -0.3923 -0.1228 -0.8208
 1321SOL    HW2 5158   3.258   8.523   2.610 -1.2361 -0.5048 -1.4039
 1322SOL     OW 5159   7.600   3.245   7.578  0.5774 -0.2817 -0.1365
 1322SOL    HW1 5160   7.535   3.252   7.508  0.9661  0.0700 -0.4647
 1322SOL    HW2 5161   7.646   3.163   7.560  0.4759 -0.3428 -0.1179
 1323SOL     OW 5162   0.212   4.175   2.100  0.1680 -0.2122 -0.8765
 1323SOL    HW1 5163   0.205   4.178   2.196 -1.0776 -0.4016 -0.9504
 1323SOL    HW2 5164   0.180   4.088   2.077 -0.6292  0.2512 -1.5481
 1324SOL     OW 5165   6.913   6.338   0.304  0.2790 -0.3685  0.3040
 1324SOL    HW1 5166   6.951   6.251   0.314  0.1397 -0.2697  2.0559
 1324SOL    HW2 5167   6.979   6.388   0.256  1.6000 -0.6969  1.6973
 1325SOL     OW 5168   4.070   1.253   3.712  0.4653 -0.1314  0.3990
 1325SOL    HW1 5169   4.012   1.184   3.680  0.8170 -0.6808  0.9171
 1325SOL    HW2 5170   4.011   1.321   3.746  0.1045  0.1108 -0.6785
 1326SOL     OW 5171   7.493   7.670   7.520 -0.0290 -0.2211 -0.1723
 1326SOL    HW1 5172   7.498   7.754   7.475 -2.2308  0.8649  1.4101
 1326SOL    HW2 5173   7.414   7.629   7.484 -0.6121 -0.2813  1.1485
 1327SOL     OW 5174   0.927   1.557   3.186  0.2636  0.8717 -0.2607
 1327SOL    HW1 5175   0.863   1.486   3.185  2.3633 -1.1364 -0.4342
 1327SOL    HW2 5176   0.926   1.589   3.276 -1.9136  1.8558 -0.5780
 1328SOL     OW 5177   3.557   2.502   5.662  0.3173 -0.5035  0.3033
 1328SOL    HW1 5178   3.575   2.593   5.640 -0.8561  0.4393  2.8404
 1328SOL    HW2 5179   3.502   2.470   5.591  0.8585  0.7040 -0.6953
 1329SOL     OW 5180   7.097   2.459   6.268  0.3211  0.5123 -0.3036
 1329SOL    HW1 5181   7.044   2.425   6.340 -0.9694 -1.7662 -2.2036
 1329SOL    HW2 5182   7.037   2.463   6.194  2.4607 -1.0598 -2.2788
 1330SOL     OW 5183   7.374   7.936   7.799  0.1110  0.3742 -0.6385
 1330SOL    HW1 5184   7.461   7.915   7.765 -0.2505 -1.1214 -0.6848
 1330SOL    HW2 5185   7.386   7.946   7.893  0.1177 -1.2446 -0.4360
 1331SOL     OW 5186   1.986   0.062   8.538 -0.0125 -0.1467  0.0239
 1331SOL    HW1 5187   2.034  -0.020   8.528 -0.2004 -0.4029  1.0837
 1331SOL    HW2 5188   1.943   0.054   8.623 -1.8991  0.0917 -0.8577
 1332SOL     OW 5189   0.026   6.144   4.654 -0.7453  0.2724 -0.4769
 1332SOL    HW1 5190   0.003   6.199   4.730  0.1473  1.8108 -1.2645
 1332SOL    HW2 5191  -0.001   6.196   4.578 -0.4643 -0.6846 -1.2466
 1333SOL     OW 5192   4.740   3.499   3.731 -0.3632  0.3818 -0.0704
 1333SOL    HW1 5193   4.658   3.450   3.739 -0.4263  0.2802 -1.1986
 1333SOL    HW2 5194   4.803   3.434   3.698  0.1096  0.5307  0.5206
 1334SOL     OW 5195   8.040   8.278   0.718 -0.0691  0.2972 -0.2071
 1334SOL    HW1 5196   7.969   8.229   0.677  0.6053 -0.4508 -0.5031
 1334SOL    HW2 5197   8.117   8.259   0.664  0.7545 -0.3736  1.1432
 1335SOL     OW 5198   7.305   5.277   7.973 -0.4047 -0.3684 -0.1904
 1335SOL    HW1 5199   7.337   5.303   8.059 -0.4148 -0.6711 -0.0938
 1335SOL    HW2 5200   7.382   5.243   7.928 -0.3876 -0.1557 -0.3240
 1336SOL     OW 5201   7.206   3.475   3.836  0.0792  0.0492 -0.3772
 1336SOL    HW1 5202   7.142   3.546   3.829 -1.1389 -0.9892 -0.1569
 1336SOL    HW2 5203   7.153   3.396   3.847  1.4127 -0.8500 -0.1813
 1337SOL     OW 5204   2.266   7.201   4.633 -0.6098 -0.3603  0.6591
 1337SOL    HW1 5205   2.235   7.122   4.590 -0.6692 -1.3140  2.3736
 1337SOL    HW2 5206   2.309   7.170   4.713 -2.9731  1.4076  2.7857
 1338SOL     OW 5207   6.318   1.757   4.712  0.3699 -0.2551 -0.4331
 1338SOL    HW1 5208   6.359   1.733   4.795 -1.9920 -0.8281  0.6595
 1338SOL    HW2 5209   6.241   1.808   4.737 -0.5793 -0.6931 -2.2520
 1339SOL     OW 5210   4.082   4.648   7.776 -0.1911  1.0195  0.5748
 1339SOL    HW1 5211   4.099   4.622   7.686  0.9329  0.6497  0.8806
 1339SOL    HW2 5212   4.163   4.627   7.823 -0.3641  2.2083  1.4512
 1340SOL     OW 5213   6.849   7.260   4.921  0.0080 -0.2848  0.2358
 1340SOL    HW1 5214   6.767   7.310   4.923 -0.7812 -1.4945  3.6843
 1340SOL    HW2 5215   6.825   7.177   4.880  0.1640  0.2368 -0.9769
 1341SOL     OW 5216   1.783   2.422   3.090 -0.1763  0.0607 -0.2631
 1341SOL    HW1 5217   1.692   2.410   3.065 -0.4168  0.9346  0.1324
 1341SOL    HW2 5218   1.780   2.447   3.182  0.3904  0.9256 -0.4597
 1342SOL     OW 5219   3.547   5.695   6.408  0.4649  0.1549  0.3293
 1342SOL    HW1 5220   3.499   5.766   6.452 -0.1112 -0.2040  0.2961
 1342SOL    HW2 5221   3.551   5.723   6.316 -1.0480 -0.5044  0.0277
 1343SOL     OW 5222   7.676   4.471   2.161 -0.0744  0.5120  0.0334
 1343SOL    HW1 5223   7.750   4.426   2.201  0.7161  2.4889  0.9429
 1343SOL    HW2 5224   7.623   4.402   2.123  3.1452 -0.9029 -2.2830
 1344SOL     OW 5225   7.550   1.341   6.237  0.0746 -0.1698 -0.4603
 1344SOL    HW1 5226   7.632   1.347   6.286  0.7536 -1.2350 -1.4091
 1344SOL    HW2 5227   7.522   1.432   6.225  0.2797  0.1475  1.2125
 1345SOL     OW 5228   2.842   5.318   5.320  0.0214  0.1779 -0.1423
 1345SOL    HW1 5229   2.752   5.349   5.328  0.0755  0.5963 -0.9753
 1345SOL    HW2 5230   2.893   5.374   5.379 -0.4389 -0.9583  1.3887
 1346SOL     OW 5231   5.735   0.889   1.629 -0.3332  0.1728  0.2219
 1346SOL    HW1 5232   5.721   0.801   1.664  1.9120  0.5283  2.2836
 1346SOL    HW2 5233   5.759   0.942   1.705  1.1263  1.9069 -1.3284
 1347SOL     OW 5234   3.645   5.141   7.146  0.2664 -0.0750  0.0333
 1347SOL    HW1 5235   3.566   5.147   7.200 -2.1840 -0.3731 -3.1982
 1347SOL    HW2 5236   3.662   5.047   7.139  2.2907  0.0086  2.3185
 1348SOL     OW 5237   8.116   1.999   8.560  0.0775  0.6525 -0.0012
 1348SOL    HW1 5238   8.083   1.988   8.649  0.9353 -1.7375  0.1268
 1348SOL    HW2 5239   8.112   1.911   8.522  1.3295  1.2732 -1.7383
 1349SOL     OW 5240   3.287   3.789   2.981  0.0048  0.1642  0.3456
 1349SOL    HW1 5241   3.235   3.855   3.028  0.9471  1.3393 -0.2015
 1349SOL    HW2 5242   3.361   3.771   3.039 -0.5779 -0.9159  0.7740
 1350SOL     OW 5243   2.276   5.348   5.691  0.1255  0.0288 -0.1658
 1350SOL    HW1 5244   2.372   5.343   5.695  0.0833 -0.4675  0.4266
 1350SOL    HW2 5245   2.257   5.442   5.680  0.7133 -0.0315 -1.9934
 1351SOL     OW 5246   5.634   8.575   0.755  0.2061  0.4374  0.2616
 1351SOL    HW1 5247   5.725   8.595   0.733  1.1993 -2.2505  1.5325
 1351SOL    HW2 5248   5.618   8.625   0.835  2.4320 -2.8093  3.0226
 1352SOL     OW 5249   3.078   4.436   3.076 -0.8781  0.6689  0.3857
 1352SOL    HW1 5250   3.019   4.367   3.047 -0.1414 -0.5530  1.6733
 1352SOL    HW2 5251   3.042   4.466   3.159 -0.3011  0.6894  0.6344
 1353SOL     OW 5252   1.555   0.672   3.149  0.3279 -0.1255  0.0425
 1353SOL    HW1 5253   1.537   0.578   3.147 -0.4703 -0.2754  4.1945
 1353SOL    HW2 5254   1.479   0.709   3.194 -0.5905  3.0250 -3.6189
 1354SOL     OW 5255   3.085   7.671   7.741 -0.4249 -0.4661  0.0839
 1354SOL    HW1 5256   3.056   7.673   7.832  0.1531 -1.2205  0.2908
 1354SOL    HW2 5257   3.005   7.685   7.691 -0.4053  2.5345  0.7167
 1355SOL     OW 5258   2.573   6.949   4.318  0.5559  0.0047  0.2443
 1355SOL    HW1 5259   2.512   6.926   4.248 -2.7919  3.5092  1.6712
 1355SOL    HW2 5260   2.598   6.865   4.357 -1.7019 -1.7155 -1.7432
 1356SOL     OW 5261   7.782   0.664   5.395  0.4733  0.0217  0.4474
 1356SOL    HW1 5262   7.733   0.706   5.466  0.2959  0.0846  0.2852
 1356SOL    HW2 5263   7.770   0.570   5.410  0.6485  0.0297  0.6506
 1357SOL     OW 5264   1.873   7.087   5.372 -0.3764 -0.0486  0.4246
 1357SOL    HW1 5265   1.789   7.059   5.410 -0.5122 -1.4834 -0.8347
 1357SOL    HW2 5266   1.936   7.024   5.407 -0.1403 -0.0790 -0.0624
 1358SOL     OW 5267   2.210   4.676   1.241  0.2428  0.3541  0.3699
 1358SOL    HW1 5268   2.299   4.643   1.254  0.4336  0.7941  0.1956
 1358SOL    HW2 5269   2.198   4.678   1.146 -0.1524 -0.2204  0.3996
 1359SOL     OW 5270   7.009   2.044   5.795 -0.2498  0.2413 -0.0325
 1359SOL    HW1 5271   7.034   1.974   5.734 -1.8556 -0.4591  0.0641
 1359SOL    HW2 5272   7.076   2.041   5.863  0.7951  0.1055 -1.0308
 1360SOL     OW 5273   5.780   7.096   0.314  0.0837  0.0467  0.0437
 1360SOL    HW1 5274   5.805   7.100   0.406  0.8115  0.1215 -0.1561
 1360SOL    HW2 5275   5.741   7.010   0.303 -0.5923  0.2785  0.5662
 1361SOL     OW 5276   8.593   1.864   3.374  0.4758 -0.9352  0.2699
 1361SOL    HW1 5277   8.680   1.842   3.340  1.5808  0.3756  2.0754
 1361SOL    HW2 5278   8.579   1.803   3.446 -2.1088 -4.0964 -2.5753
 1362SOL     OW 5279   2.785   3.832   1.127  0.2127 -0.0662 -0.2968
 1362SOL    HW1 5280   2.843   3.822   1.052  1.5146  1.4547  0.4500
 1362SOL    HW2 5281   2.720   3.897   1.099  0.5277  0.2868 -0.2150
 1363SOL     OW 5282   2.450   1.998   4.461  0.4898 -0.2379  0.2717
 1363SOL    HW1 5283   2.529   1.971   4.413 -0.9497 -1.5108 -1.4976
 1363SOL    HW2 5284   2.411   1.916   4.490  0.1435  0.4219  1.7415
 1364SOL     OW 5285   4.502   1.635   1.787  0.0997  1.0081  0.3830
 1364SOL    HW1 5286   4.484   1.558   1.732  0.6849  0.4153  1.0151
 1364SOL    HW2 5287   4.596   1.632   1.803 -0.0328  1.3078  1.2329
 1365SOL     OW 5288   8.004   7.784   7.787 -0.2010  0.1310 -0.3321
 1365SOL    HW1 5289   8.006   7.689   7.777  4.7891 -0.0836  0.1723
 1365SOL    HW2 5290   7.996   7.818   7.697 -0.5894 -0.7646 -0.6451
 1366SOL     OW 5291   8.279   4.741   7.955  0.4574 -0.3507 -0.6566
 1366SOL    HW1 5292   8.229   4.814   7.991 -0.5103 -0.2902 -2.0624
 1366SOL    HW2 5293   8.294   4.683   8.030  3.4559  2.3828  1.1559
 1367SOL     OW 5294   2.594   0.758   1.687  0.1781  0.7187 -0.1023
 1367SOL    HW1 5295   2.580   0.844   1.725 -1.8177  0.7206 -0.7277
 1367SOL    HW2 5296   2.579   0.697   1.759  0.4660  0.8381  0.0621
 1368SOL     OW 5297   1.499   7.344   4.118 -0.4460 -0.2023 -0.0065
 1368SOL    HW1 5298   1.559   7.404   4.161 -0.6043  0.1714 -0.3041
 1368SOL    HW2 5299   1.417   7.354   4.167 -0.1551 -1.0301  0.6746
 1369SOL     OW 5300   1.643   6.031   6.253 -0.5272 -0.5432  0.3634
 1369SOL    HW1 5301   1.647   6.032   6.349 -2.9346  1.3680  0.5563
 1369SOL    HW2 5302   1.560   5.988   6.233 -0.6961  0.2674 -0.7833
 1370SOL     OW 5303   0.325   2.186   5.278  0.4550 -0.2816  0.1931
 1370SOL    HW1 5304   0.378   2.232   5.344  2.2962  0.5781 -1.7450
 1370SOL    HW2 5305   0.235   2.210   5.298  1.1500  1.8662  1.0034
 1371SOL     OW 5306   4.358   1.255   0.186  0.7754 -0.0391  0.0901
 1371SOL    HW1 5307   4.310   1.333   0.159  2.8722  0.5092 -2.4614
 1371SOL    HW2 5308   4.434   1.289   0.233  0.7007 -0.6699  0.6846
 1372SOL     OW 5309   8.482   7.358   2.077 -0.0958  0.3889 -0.6444
 1372SOL    HW1 5310   8.557   7.370   2.019  0.4470 -0.2960 -0.0927
 1372SOL    HW2 5311   8.496   7.420   2.148  0.1163  0.0224 -0.3690
 1373SOL     OW 5312   1.706   7.285   6.779 -0.0683 -0.2211 -0.2100
 1373SOL    HW1 5313   1.720   7.360   6.837 -2.4724  0.1039  0.0289
 1373SOL    HW2 5314   1.788   7.235   6.784  0.8567  1.3512  1.1430
 1374SOL     OW 5315   4.121   8.136   0.506 -0.4067 -0.4253  0.1780
 1374SOL    HW1 5316   4.092   8.098   0.589 -0.6801 -0.4441  0.0743
 1374SOL    HW2 5317   4.047   8.190   0.478 -0.9162 -1.5942 -0.8082
 1375SOL     OW 5318   6.067   1.456   4.762 -0.3442 -0.2466 -0.1883
 1375SOL    HW1 5319   6.090   1.373   4.720 -0.0003 -0.9047  1.2428
 1375SOL    HW2 5320   6.137   1.472   4.825  0.6890  2.1941 -1.7906
 1376SOL     OW 5321   7.950   3.440   1.482  0.2739 -0.2821 -0.0074
 1376SOL    HW1 5322   7.865   3.479   1.501  0.4440 -0.1061  0.3984
 1376SOL    HW2 5323   7.997   3.443   1.565 -0.0827 -2.2804  0.3290
 1377SOL     OW 5324   1.486   2.017   5.059  0.0567 -0.4306 -0.1624
 1377SOL    HW1 5325   1.450   2.042   5.145  1.4079 -0.2144  0.3642
 1377SOL    HW2 5326   1.482   2.098   5.008 -0.0245 -0.3580 -0.0442
 1378SOL     OW 5327   8.018   5.359   4.132  0.4201  0.0253  0.0486
 1378SOL    HW1 5328   7.947   5.390   4.076 -1.5654  0.4150  2.6433
 1378SOL    HW2 5329   8.002   5.265   4.140 -0.1003  0.1873  0.9959
 1379SOL     OW 5330   1.272   3.494   6.898  0.1700 -0.2528 -0.2631
 1379SOL    HW1 5331   1.280   3.487   6.993 -1.0604 -1.9336 -0.2437
 1379SOL    HW2 5332   1.220   3.572   6.883  0.2535 -0.0581  0.4467
 1380SOL     OW 5333   7.681   4.699   8.432 -0.2197 -0.4060 -0.3114
 1380SOL    HW1 5334   7.666   4.767   8.368  0.4491  1.1510  1.1177
 1380SOL    HW2 5335   7.772   4.710   8.459 -0.6817 -0.5242  1.4233
 1381SOL     OW 5336   1.450   1.042   8.564 -0.0947 -0.1319  0.0586
 1381SOL    HW1 5337   1.449   0.989   8.485 -0.0144 -2.0672  1.2770
 1381SOL    HW2 5338   1.541   1.068   8.575  0.0222 -0.4545 -0.1253
 1382SOL     OW 5339   0.450   4.678   7.398 -0.5171 -0.5476  0.0035
 1382SOL    HW1 5340   0.524   4.726   7.361  0.0230 -0.6486  0.9234
 1382SOL    HW2 5341   0.476   4.586   7.394 -0.5084 -0.5704  0.4960
 1383SOL     OW 5342   2.237   3.634   3.452  0.3724  0.1715 -0.5573
 1383SOL    HW1 5343   2.248   3.657   3.545  0.2576 -0.1858 -0.4563
 1383SOL    HW2 5344   2.153   3.673   3.428 -0.4058 -1.1574 -0.0636
 1384SOL     OW 5345   0.606   8.439   2.217 -0.2833 -0.2499  0.4953
 1384SOL    HW1 5346   0.613   8.365   2.157 -4.9580 -1.3253  0.8254
 1384SOL    HW2 5347   0.551   8.502   2.171  0.3681  1.2723  1.7144
 1385SOL     OW 5348   8.025   7.358   1.934  0.1848 -0.3915  0.1081
 1385SOL    HW1 5349   8.028   7.343   1.840  0.3310 -1.3608  0.2563
 1385SOL    HW2 5350   8.103   7.409   1.953 -0.0527  0.1510 -0.3496
 1386SOL     OW 5351   3.225   6.363   0.991 -0.2577  0.1585  0.1005
 1386SOL    HW1 5352   3.156   6.321   1.040  0.5405  0.1899  1.2891
 1386SOL    HW2 5353   3.306   6.330   1.030  0.4176  3.0387  1.3873
 1387SOL     OW 5354   6.202   7.563   2.411  0.4775 -1.1301  0.7553
 1387SOL    HW1 5355   6.217   7.657   2.423 -1.0353 -1.0644  2.8523
 1387SOL    HW2 5356   6.215   7.548   2.318  0.9468  1.1222  0.3986
 1388SOL     OW 5357   1.835   2.996   3.383 -0.2730  0.4231  0.1591
 1388SOL    HW1 5358   1.785   2.915   3.376 -0.4213  0.4683  0.6702
 1388SOL    HW2 5359   1.832   3.033   3.295 -0.1498 -0.1527 -0.0959
 1389SOL     OW 5360   8.207   4.667   3.245 -0.1065 -0.6924 -0.1750
 1389SOL    HW1 5361   8.302   4.682   3.237 -0.1547 -0.5949 -0.5572
 1389SOL    HW2 5362   8.184   4.707   3.329  0.0467  0.0251 -0.4646
 1390SOL     OW 5363   0.007   2.746   3.043 -0.2924  0.0200  0.6354
 1390SOL    HW1 5364  -0.083   2.747   3.075 -0.8981  0.5988 -1.0043
 1390SOL    HW2 5365   0.019   2.832   3.002  0.8129 -0.2796  0.2838
 1391SOL     OW 5366   7.444   6.267   6.606 -0.6051 -0.0655  0.1000
 1391SOL    HW1 5367   7.407   6.346   6.646  2.0635  2.0896 -1.2958
 1391SOL    HW2 5368   7.508   6.236   6.669 -0.0440  0.2898 -0.2785
 1392SOL     OW 5369   5.703   4.930   0.011  0.0620  0.1107 -0.0008
 1392SOL    HW1 5370   5.626   4.908  -0.041 -1.7286  1.6007  1.8780
 1392SOL    HW2 5371   5.670   4.983   0.083  3.1676  3.2500 -0.5928
 1393SOL     OW 5372   0.886   2.877   3.980 -0.3372 -0.2295 -0.2704
 1393SOL    HW1 5373   0.846   2.910   4.061  0.6641  3.0022 -0.9718
 1393SOL    HW2 5374   0.972   2.844   4.007  0.8744  2.7402 -0.1652
 1394SOL     OW 5375   0.045   7.085   4.753 -0.5630 -0.0611 -0.3626
 1394SOL    HW1 5376  -0.012   7.066   4.679 -1.5525 -0.1900  0.4170
 1394SOL    HW2 5377   0.080   7.172   4.734  1.1987 -1.0715 -2.1935
 1395SOL     OW 5378   5.549   7.725   4.229  0.2655  0.1122  0.0736
 1395SOL    HW1 5379   5.473   7.722   4.287 -3.0190  0.2114 -3.7796
 1395SOL    HW2 5380   5.566   7.818   4.216  1.6797  0.1057  1.4435
 1396SOL     OW 5381   7.220   4.294   3.391 -0.0438  0.3033  0.0717
 1396SOL    HW1 5382   7.159   4.272   3.461 -0.0737 -0.1487 -0.0933
 1396SOL    HW2 5383   7.252   4.210   3.359  0.9012  0.5339  0.3568
 1397SOL     OW 5384   3.460   3.050   2.912  0.3087 -0.7728 -0.3754
 1397SOL    HW1 5385   3.432   3.141   2.903 -1.5561 -1.2624 -0.0985
 1397SOL    HW2 5386   3.411   3.003   2.844  1.7282 -1.4946 -0.9372
 1398SOL     OW 5387   2.562   5.767   7.848 -0.3926  0.6728 -0.1170
 1398SOL    HW1 5388   2.602   5.783   7.934  0.5110  0.9268 -0.5701
 1398SOL    HW2 5389   2.634   5.732   7.795 -0.7686  1.1908 -0.9778
 1399SOL     OW 5390   2.985   3.854   6.942 -0.1595  0.7656 -0.4104
 1399SOL    HW1 5391   2.940   3.915   6.884  1.1042  1.5303 -0.6174
 1399SOL    HW2 5392   3.027   3.909   7.009  0.8980  0.1416 -0.5256
 1400SOL     OW 5393   7.341   3.960   7.406 -0.6133  0.3048  0.1934
 1400SOL    HW1 5394   7.259   3.981   7.451 -0.4000  2.1646 -0.2411
 1400SOL    HW2 5395   7.329   3.869   7.377 -1.9354  0.0657  1.3665
 1401SOL     OW 5396   8.561   7.382   5.446 -0.0434 -0.2184  0.2622
 1401SOL    HW1 5397   8.539   7.380   5.539  0.0371 -0.0984  0.2835
 1401SOL    HW2 5398   8.504   7.449   5.409 -1.5003 -1.6054 -0.1400
 1402SOL     OW 5399   1.409   6.413   0.206 -0.1946  0.0355 -0.6336
 1402SOL    HW1 5400   1.387   6.483   0.267 -3.4670 -1.4550  0.0835
 1402SOL    HW2 5401   1.411   6.456   0.120 -0.2522  1.3173 -0.0079
 1403SOL     OW 5402   2.591   2.215   5.909  0.3764  0.2736  0.1389
 1403SOL    HW1 5403   2.601   2.296   5.858  0.1142 -0.7102 -1.5678
 1403SOL    HW2 5404   2.544   2.242   5.988  1.8624  2.0842  0.4916
 1404SOL     OW 5405   1.717   4.402   2.917 -0.1234 -0.1109  0.4178
 1404SOL    HW1 5406   1.747   4.328   2.864  0.4968  0.6481 -0.3106
 1404SOL    HW2 5407   1.774   4.400   2.994 -0.0918 -0.3740  0.3909
 1405SOL     OW 5408   5.529   8.237   4.428  0.3897 -0.4317  0.2563
 1405SOL    HW1 5409   5.618   8.242   4.394  0.8078 -0.9831  1.2439
 1405SOL    HW2 5410   5.479   8.195   4.358  0.9465 -0.3221 -0.2111
 1406SOL     OW 5411   6.639   6.508   4.957  0.2411  0.8072  0.2482
 1406SOL    HW1 5412   6.564   6.536   5.009  0.3783  1.2009  0.2351
 1406SOL    HW2 5413   6.601   6.474   4.876 -0.2333 -2.5793  1.7105
 1407SOL     OW 5414   1.399   8.180   6.457  0.1070  0.1036  0.1929
 1407SOL    HW1 5415   1.459   8.124   6.507  0.6391  4.1462  4.8510
 1407SOL    HW2 5416   1.456   8.232   6.401 -0.0467 -1.4004 -1.4490
 1408SOL     OW 5417   6.725   7.040   2.613  0.7494 -1.0266  0.0509
 1408SOL    HW1 5418   6.705   7.074   2.526  0.9674  0.5232  0.5815
 1408SOL    HW2 5419   6.816   7.010   2.607  1.3713  0.6902  0.1655
 1409SOL     OW 5420   8.337   1.928   2.662 -0.6184  0.3140 -0.1567
 1409SOL    HW1 5421   8.244   1.943   2.645 -0.5009 -0.9199 -2.1640
 1409SOL    HW2 5422   8.347   1.833   2.663  0.3352  0.3522  2.0890
 1410SOL     OW 5423   2.908   0.535   8.244 -0.0806  0.0724  0.1378
 1410SOL    HW1 5424   2.915   0.545   8.149  0.7971 -1.2941  0.0399
 1410SOL    HW2 5425   2.998   0.538   8.276 -0.3579  0.4099  0.9233
 1411SOL     OW 5426   6.192   8.063   4.503 -0.6308  0.6235 -0.4498
 1411SOL    HW1 5427   6.136   8.138   4.487 -1.1626  0.4971  0.7370
 1411SOL    HW2 5428   6.165   8.030   4.589 -0.5835 -1.0735 -1.0403
 1412SOL     OW 5429   1.276   5.568   2.800 -0.7594  0.2513 -0.3507
 1412SOL    HW1 5430   1.363   5.575   2.838 -0.0808  0.4351 -1.8578
 1412SOL    HW2 5431   1.216   5.590   2.872  0.3981 -0.2993  0.8182
 1413SOL     OW 5432   7.487   5.356   2.735  0.5140 -0.4299 -0.0983
 1413SOL    HW1 5433   7.461   5.333   2.824  1.1436 -1.4496 -0.1599
 1413SOL    HW2 5434   7.580   5.332   2.731  0.6492  0.2076 -0.8336
 1414SOL     OW 5435   3.116   6.442   8.243  0.2991  0.3461  0.1484
 1414SOL    HW1 5436   3.123   6.370   8.180  0.0511  0.7388 -0.3305
 1414SOL    HW2 5437   3.136   6.401   8.327  1.2604 -0.0542 -0.2548
 1415SOL     OW 5438   3.263   2.668   6.694  0.0341 -0.4436  0.2874
 1415SOL    HW1 5439   3.325   2.626   6.754  0.9592 -1.1464 -1.0769
 1415SOL    HW2 5440   3.201   2.598   6.671  0.0966 -0.3820 -0.0811
 1416SOL     OW 5441   6.370   6.980   3.147 -0.7153 -0.3732  0.3218
 1416SOL    HW1 5442   6.305   7.005   3.212 -1.3607 -3.9766  1.3140
 1416SOL    HW2 5443   6.448   6.959   3.198 -0.0323  0.1645 -0.4692
 1417SOL     OW 5444   1.088   4.379   8.183  0.2445 -0.4079 -0.0941
 1417SOL    HW1 5445   1.156   4.313   8.168  1.6955  1.1638 -0.6605
 1417SOL    HW2 5446   1.017   4.354   8.123  0.1481 -2.2283  0.7080
 1418SOL     OW 5447   4.344   5.213   2.369  0.0873  0.0543  0.0668
 1418SOL    HW1 5448   4.373   5.295   2.329 -1.3715 -1.0609 -3.6783
 1418SOL    HW2 5449   4.269   5.238   2.423 -0.3096  1.2229 -0.9735
 1419SOL     OW 5450   4.810   2.138   6.538 -0.3030  0.2929  0.0596
 1419SOL    HW1 5451   4.863   2.217   6.533 -1.1077  0.9300  1.0517
 1419SOL    HW2 5452   4.719   2.170   6.535 -0.6556 -0.4598  1.5822
 1420SOL     OW 5453   6.697   5.660   3.989 -0.7005 -0.1796  0.2013
 1420SOL    HW1 5454   6.751   5.722   4.037  0.6851 -0.3818 -1.0139
 1420SOL    HW2 5455   6.609   5.699   3.990  0.1139  1.8175 -0.5111
 1421SOL     OW 5456   5.952   3.620   6.099  0.4886 -0.1103  0.1644
 1421SOL    HW1 5457   6.019   3.587   6.159  0.4821 -1.4954 -0.5442
 1421SOL    HW2 5458   5.993   3.695   6.055  0.8337  0.3100  1.1843
 1422SOL     OW 5459   1.241   8.298   0.180  0.2618 -0.8169  0.2440
 1422SOL    HW1 5460   1.176   8.341   0.235 -0.2923  1.2644 -1.8933
 1422SOL    HW2 5461   1.320   8.352   0.188  0.0560 -0.2583 -1.2273
 1423SOL     OW 5462   6.663   6.949   5.287 -0.0268 -0.3383  0.8282
 1423SOL    HW1 5463   6.736   7.002   5.256 -0.9760  0.3190 -0.4005
 1423SOL    HW2 5464   6.602   7.011   5.326  0.3922 -0.9739  2.5810
 1424SOL     OW 5465   2.867   4.328   0.594  0.7140  0.1017 -0.2517
 1424SOL    HW1 5466   2.902   4.288   0.514  1.3550  0.8606 -0.3595
 1424SOL    HW2 5467   2.846   4.254   0.650  0.0225 -0.4582 -1.2112
 1425SOL     OW 5468   3.194   1.867   2.172 -0.0869  0.1096  0.1855
 1425SOL    HW1 5469   3.103   1.872   2.141 -0.4001 -1.9620  0.6613
 1425SOL    HW2 5470   3.245   1.901   2.099 -1.1384 -0.2925 -0.7744
 1426SOL     OW 5471   2.108   2.575   2.441 -0.1437 -0.0571 -0.4112
 1426SOL    HW1 5472   2.096   2.515   2.515 -0.1591  0.5171  0.0569
 1426SOL    HW2 5473   2.036   2.554   2.381  0.4795 -1.2511 -0.7733
 1427SOL     OW 5474   4.737   6.156   7.247 -0.4954 -0.2844  0.1098
 1427SOL    HW1 5475   4.826   6.121   7.248 -0.4109 -0.1286 -0.8203
 1427SOL    HW2 5476   4.733   6.212   7.324  1.2344  2.0854 -1.3583
 1428SOL     OW 5477   5.455   2.122   4.230 -0.3283 -0.2506 -0.1835
 1428SOL    HW1 5478   5.520   2.053   4.238  1.1268  0.9703 -1.0310
 1428SOL    HW2 5479   5.372   2.076   4.216  0.5714 -1.8133 -0.5417
 1429SOL     OW 5480   6.353   4.061   4.516 -0.3521 -0.6858  0.2727
 1429SOL    HW1 5481   6.404   4.049   4.435 -1.3375 -1.3050 -0.2789
 1429SOL    HW2 5482   6.340   3.972   4.549 -1.5754 -0.6074  0.0648
 1430SOL     OW 5483   3.154   8.555   6.838  0.3602 -0.1912 -0.8187
 1430SOL    HW1 5484   3.206   8.623   6.882 -0.0870 -0.2088 -0.2505
 1430SOL    HW2 5485   3.088   8.602   6.789  0.7331 -0.1795 -1.3161
 1431SOL     OW 5486   8.159   3.630   6.685  0.2377 -0.2161 -0.2850
 1431SOL    HW1 5487   8.208   3.667   6.759  0.1993  1.3750 -1.0035
 1431SOL    HW2 5488   8.178   3.536   6.688  3.2958  0.2825 -0.4675
 1432SOL     OW 5489   4.012   1.048   3.506 -0.0179  0.0374 -0.4616
 1432SOL    HW1 5490   4.065   1.047   3.426  1.0070  1.7523  0.1375
 1432SOL    HW2 5491   3.990   0.957   3.522  3.1170 -0.8306 -0.5114
 1433SOL     OW 5492   0.822   1.066   0.920  0.2983  0.0931 -0.1100
 1433SOL    HW1 5493   0.787   1.032   0.838  1.0743 -1.4604  0.1736
 1433SOL    HW2 5494   0.745   1.089   0.972 -0.2261 -0.2359 -0.7261
 1434SOL     OW 5495   2.494   8.284   0.098 -0.1637 -0.3150  0.6598
 1434SOL    HW1 5496   2.477   8.191   0.086  2.9496 -0.9660  0.5447
 1434SOL    HW2 5497   2.478   8.323   0.012  1.9754 -1.4363 -0.3259
 1435SOL     OW 5498   7.933   7.347   5.956 -0.3851 -0.2540  0.5237
 1435SOL    HW1 5499   7.982   7.428   5.939  2.2699 -1.7270  0.5368
 1435SOL    HW2 5500   7.921   7.346   6.051  0.2054 -0.1808  0.6060
 1436SOL     OW 5501   3.062   4.250   3.703  0.2463 -0.3618  0.6250
 1436SOL    HW1 5502   3.000   4.226   3.771  1.2814 -0.1008  1.6978
 1436SOL    HW2 5503   3.090   4.338   3.726  0.4413 -0.1740 -0.2788
 1437SOL     OW 5504   4.460   1.930   6.088  0.0208 -0.1677 -0.6082
 1437SOL    HW1 5505   4.443   2.024   6.096 -0.6080 -0.1919 -1.5086
 1437SOL    HW2 5506   4.514   1.909   6.164 -1.1120  0.6185  0.4626
 1438SOL     OW 5507   0.916   7.587   7.624 -0.6005  0.5406 -0.0183
 1438SOL    HW1 5508   0.865   7.667   7.638 -0.6991  0.4115  0.3865
 1438SOL    HW2 5509   0.960   7.600   7.540 -0.4585  1.1036  0.1415
 1439SOL     OW 5510   1.905   2.713   5.371 -0.2944  0.5774 -0.0320
 1439SOL    HW1 5511   1.857   2.782   5.324 -1.6796  0.9626  1.8515
 1439SOL    HW2 5512   1.961   2.760   5.432  1.6301  0.0794 -1.3182
 1440SOL     OW 5513   6.180   7.157   1.888 -0.1360 -0.2595 -0.2192
 1440SOL    HW1 5514   6.102   7.168   1.942 -0.4299  0.1920 -0.7194
 1440SOL    HW2 5515   6.169   7.071   1.848  0.4750 -0.9436  1.0483
 1441SOL     OW 5516   6.655   4.227   5.512 -0.5939  0.7417 -0.7903
 1441SOL    HW1 5517   6.699   4.142   5.516 -1.5520  0.2742  0.3360
 1441SOL    HW2 5518   6.610   4.227   5.427  1.0352  0.9767 -1.6787
 1442SOL     OW 5519   4.304   3.734   8.365 -0.0540  0.6472 -0.0378
 1442SOL    HW1 5520   4.321   3.693   8.280 -1.0926 -0.3369  0.2021
 1442SOL    HW2 5521   4.363   3.690   8.425  1.9378  2.5357 -0.5005
 1443SOL     OW 5522   7.726   2.663   8.347 -0.2313 -0.8629  0.0658
 1443SOL    HW1 5523   7.778   2.583   8.350 -0.1274 -0.7884  0.3426
 1443SOL    HW2 5524   7.675   2.657   8.266  1.2514 -0.2951 -0.9609
 1444SOL     OW 5525   2.337   8.033   2.222 -0.3695  0.3034 -0.3296
 1444SOL    HW1 5526   2.344   8.028   2.317  1.4726 -0.5484 -0.4593
 1444SOL    HW2 5527   2.253   8.076   2.206 -1.7570 -1.4709  1.6368
 1445SOL     OW 5528   2.569   8.572   5.259  0.5369  0.2468 -0.4683
 1445SOL    HW1 5529   2.649   8.623   5.270 -0.2804  1.6025 -0.6645
 1445SOL    HW2 5530   2.502   8.621   5.305  0.0741 -1.6523  1.0164
 1446SOL     OW 5531   6.732   1.091   5.988 -0.3319  0.0291 -0.1193
 1446SOL    HW1 5532   6.775   1.171   6.019  0.9171  0.2333 -2.1427
 1446SOL    HW2 5533   6.799   1.023   5.994  0.1270  0.1605 -2.4974
 1447SOL     OW 5534   0.723   2.031   3.679 -0.0618 -0.8327  1.1202
 1447SOL    HW1 5535   0.744   1.965   3.614  0.6046  0.3796  0.0548
 1447SOL    HW2 5536   0.628   2.023   3.691 -1.3281  2.0642 -3.8136
 1448SOL     OW 5537   8.563   5.279   1.341 -0.1927  0.3518 -0.4026
 1448SOL    HW1 5538   8.585   5.223   1.266 -0.9340  0.8377 -0.9951
 1448SOL    HW2 5539   8.475   5.310   1.323  0.2646  1.8505 -0.1792
 1449SOL     OW 5540   4.012   8.531   5.989  0.6201  0.5635  0.5164
 1449SOL    HW1 5541   3.924   8.505   5.960  0.5098  1.1349  0.3288
 1449SOL    HW2 5542   4.037   8.464   6.052  0.1233  0.2932  0.4318
 1450SOL     OW 5543   6.442   8.426   5.173 -0.3315  0.3364  0.8092
 1450SOL    HW1 5544   6.424   8.351   5.229 -0.5305 -0.3567 -0.1583
 1450SOL    HW2 5545   6.492   8.486   5.228  0.8085 -0.9877  1.2623
 1451SOL     OW 5546   3.371   6.658   8.512  0.0951 -0.0986 -0.4177
 1451SOL    HW1 5547   3.330   6.690   8.431 -2.0094 -1.7256 -0.0939
 1451SOL    HW2 5548   3.450   6.711   8.521 -0.4298  1.2351 -2.6772
 1452SOL     OW 5549   7.954   7.201   2.152 -0.4450  0.4902 -0.1251
 1452SOL    HW1 5550   7.887   7.133   2.158  1.2911 -1.2811  0.3868
 1452SOL    HW2 5551   7.952   7.228   2.060  0.1474 -1.7297 -0.8410
 1453SOL     OW 5552   7.547   7.745   4.240 -0.0250 -0.3597  0.2267
 1453SOL    HW1 5553   7.485   7.697   4.294 -0.5828 -0.4206 -0.4544
 1453SOL    HW2 5554   7.512   7.738   4.151  1.8995 -1.9448 -0.4673
 1454SOL     OW 5555   4.948   1.768   1.328  0.0519  0.2350 -0.0728
 1454SOL    HW1 5556   4.921   1.702   1.263  1.3477  0.1698 -0.5698
 1454SOL    HW2 5557   4.915   1.734   1.411  2.1625 -2.0342 -0.0233
 1455SOL     OW 5558   3.099   2.607   3.278  0.3167 -0.2937  0.0147
 1455SOL    HW1 5559   3.022   2.553   3.290  1.7442 -2.7035 -0.8084
 1455SOL    HW2 5560   3.146   2.603   3.361 -1.0279  2.3506  1.0079
 1456SOL     OW 5561   1.613   1.165   8.206 -0.0813  0.2191 -0.2057
 1456SOL    HW1 5562   1.544   1.100   8.219 -0.3629  0.7956  1.4171
 1456SOL    HW2 5563   1.694   1.114   8.200 -0.4491 -0.3581 -0.3598
 1457SOL     OW 5564   8.333   2.525   0.252 -0.4962  0.0231  0.0672
 1457SOL    HW1 5565   8.337   2.563   0.164 -0.8494  0.5547  0.2728
 1457SOL    HW2 5566   8.243   2.493   0.260 -1.4604  2.6978  1.3021
 1458SOL     OW 5567   3.396   6.450   6.924  0.1893 -0.5299  0.0300
 1458SOL    HW1 5568   3.444   6.397   6.861  1.7083  1.8710 -1.0148
 1458SOL    HW2 5569   3.341   6.507   6.871 -0.9346 -0.6186  1.0595
 1459SOL     OW 5570   8.240   3.348   6.730  0.1423  0.1394  0.4069
 1459SOL    HW1 5571   8.326   3.382   6.754  0.0827  1.5378 -1.2265
 1459SOL    HW2 5572   8.258   3.261   6.692  0.5640 -0.5732  2.1356
 1460SOL     OW 5573   5.212   1.446   3.506 -0.2539  0.1023  0.1847
 1460SOL    HW1 5574   5.293   1.474   3.548  1.0671 -0.4437 -1.8273
 1460SOL    HW2 5575   5.230   1.455   3.412 -2.5357 -0.0452 -0.3185
 1461SOL     OW 5576   1.519   6.693   6.873 -0.3085  0.2861 -0.2846
 1461SOL    HW1 5577   1.584   6.650   6.928 -0.0212  2.4283  1.2218
 1461SOL    HW2 5578   1.441   6.697   6.928 -0.4758  1.1527 -0.5666
 1462SOL     OW 5579   2.029   7.600   3.760 -0.6284 -0.1286  0.6991
 1462SOL    HW1 5580   2.050   7.507   3.770 -0.2522 -0.2258 -0.7926
 1462SOL    HW2 5581   1.981   7.622   3.840 -1.3578 -1.7869  0.7667
 1463SOL     OW 5582   4.914   7.572   0.943  0.0443  0.3387 -0.1890
 1463SOL    HW1 5583   4.875   7.517   1.011 -0.1363  1.4692  0.6589
 1463SOL    HW2 5584   4.964   7.511   0.888 -2.0078 -1.0167 -0.6781
 1464SOL     OW 5585   3.832   8.373   0.267 -0.2192 -0.3390  0.1598
 1464SOL    HW1 5586   3.918   8.393   0.303  0.0175 -0.4078 -0.3599
 1464SOL    HW2 5587   3.790   8.318   0.334  0.2616 -0.5714  0.2765
 1465SOL     OW 5588   0.234   2.248   6.664 -0.2717  0.2020  0.3037
 1465SOL    HW1 5589   0.315   2.273   6.709 -0.3386 -0.5100  0.8307
 1465SOL    HW2 5590   0.174   2.320   6.682 -0.1088  0.2069  0.8586
 1466SOL     OW 5591   1.608   7.972   1.799 -0.2704  0.0542  0.1810
 1466SOL    HW1 5592   1.670   8.010   1.860  2.0804  0.7582 -2.4346
 1466SOL    HW2 5593   1.590   8.042   1.736 -2.3506 -0.7158 -0.1807
 1467SOL     OW 5594   4.626   3.951   7.806 -0.2006 -0.3023  0.2215
 1467SOL    HW1 5595   4.702   4.002   7.835 -1.0881  1.7133 -0.7280
 1467SOL    HW2 5596   4.620   3.969   7.712 -1.0516 -1.5472  0.0181
 1468SOL     OW 5597   7.264   6.107   2.502 -0.0365  0.3456  0.1100
 1468SOL    HW1 5598   7.330   6.176   2.500  0.2341  0.0746 -2.3436
 1468SOL    HW2 5599   7.182   6.152   2.484  0.1462  0.0706 -1.5397
 1469SOL     OW 5600   1.768   7.620   7.599  0.0667 -0.1073 -0.0214
 1469SOL    HW1 5601   1.839   7.685   7.607 -1.8599  2.1676 -0.3082
 1469SOL    HW2 5602   1.770   7.593   7.507 -1.0448  2.0240 -0.7464
 1470SOL     OW 5603   8.314   2.478   1.092 -0.6287  0.6047 -0.6253
 1470SOL    HW1 5604   8.351   2.393   1.114  1.6546  1.5704 -0.5015
 1470SOL    HW2 5605   8.254   2.460   1.019  0.6125 -0.9453 -1.3141
 1471SOL     OW 5606   6.157   7.954   1.361  0.0822 -0.6222 -0.3755
 1471SOL    HW1 5607   6.078   8.007   1.353 -1.0467 -2.2559 -0.4316
 1471SOL    HW2 5608   6.189   7.972   1.449 -0.7918 -0.5518 -0.0635
 1472SOL     OW 5609   3.241   0.679   4.093  0.1844 -0.0012 -0.6885
 1472SOL    HW1 5610   3.335   0.660   4.099 -0.0393 -0.6074  2.1490
 1472SOL    HW2 5611   3.201   0.595   4.069  0.3231  0.1308 -1.3825
 1473SOL     OW 5612   4.368   0.256   6.184  0.0453 -0.3010 -0.1641
 1473SOL    HW1 5613   4.458   0.224   6.187  0.9479  1.9454 -0.9792
 1473SOL    HW2 5614   4.322   0.207   6.253  1.8723 -1.4854  0.2726
 1474SOL     OW 5615   1.065   6.920   8.111  0.1421 -0.2351  0.2194
 1474SOL    HW1 5616   1.160   6.929   8.107  0.1209  0.3111  0.7259
 1474SOL    HW2 5617   1.051   6.831   8.144  0.4937 -0.1327  0.6652
 1475SOL     OW 5618   1.983   5.811   1.482  0.1148  0.6601  0.6570
 1475SOL    HW1 5619   2.003   5.721   1.505 -1.2084  0.5556  1.5001
 1475SOL    HW2 5620   1.917   5.804   1.412  2.5435  0.9941 -1.8429
 1476SOL     OW 5621   0.607   6.148   4.678  0.1952 -0.0611 -0.3968
 1476SOL    HW1 5622   0.595   6.222   4.737 -0.7169  0.1706 -0.8641
 1476SOL    HW2 5623   0.521   6.107   4.673  0.9040 -1.8103  0.6943
 1477SOL     OW 5624   8.297   6.837   4.305 -0.1746  0.3434  0.2611
 1477SOL    HW1 5625   8.255   6.914   4.267 -0.1193 -0.1092 -0.7301
 1477SOL    HW2 5626   8.355   6.873   4.372  1.5366  1.3816 -1.6631
 1478SOL     OW 5627   3.607   4.684   1.670 -0.0086 -0.8797  0.5769
 1478SOL    HW1 5628   3.539   4.727   1.721  0.0766  0.8289 -0.6392
 1478SOL    HW2 5629   3.561   4.616   1.621 -1.0994  0.8475 -0.9292
 1479SOL     OW 5630   5.149   6.826   7.939 -0.1753  0.0313 -0.3470
 1479SOL    HW1 5631   5.216   6.758   7.945 -0.2127  0.0392  0.2236
 1479SOL    HW2 5632   5.159   6.863   7.851  1.9129  1.4334  0.4083
 1480SOL     OW 5633   5.515   1.758   2.482  0.2621  0.0457 -0.0230
 1480SOL    HW1 5634   5.555   1.840   2.452 -0.1190 -0.2803 -1.5079
 1480SOL    HW2 5635   5.590   1.700   2.499  0.5735 -0.8012 -3.4880
 1481SOL     OW 5636   0.235   3.451   3.753  0.2482  0.2618 -0.0286
 1481SOL    HW1 5637   0.264   3.509   3.822  0.5960  0.1181 -0.0532
 1481SOL    HW2 5638   0.226   3.507   3.676  0.8218  0.2424 -0.1156
 1482SOL     OW 5639   2.245   0.330   3.411  0.3283  0.4222 -0.7456
 1482SOL    HW1 5640   2.210   0.319   3.500  0.1347 -0.5598 -0.9328
 1482SOL    HW2 5641   2.334   0.296   3.416  0.3560  0.4700 -0.9039
 1483SOL     OW 5642   5.495   6.577   1.466  0.3794 -0.4120  0.6170
 1483SOL    HW1 5643   5.461   6.663   1.492 -1.2745 -1.6938  3.1832
 1483SOL    HW2 5644   5.572   6.564   1.521  0.5753 -0.6098  0.2960
 1484SOL     OW 5645   2.002   1.588   2.702  0.4664  0.5845  0.4632
 1484SOL    HW1 5646   2.034   1.547   2.621  0.7470  0.6257  0.5539
 1484SOL    HW2 5647   1.933   1.648   2.673  0.7721  0.8223  0.2234
 1485SOL     OW 5648   4.473   8.490   4.150  0.2915  0.2247 -0.2638
 1485SOL    HW1 5649   4.414   8.528   4.086 -0.3391  0.7485  0.5969
 1485SOL    HW2 5650   4.508   8.412   4.107 -2.4982 -1.2289 -0.1832
 1486SOL     OW 5651   3.682   1.814   4.635  0.8405  0.4016  0.5230
 1486SOL    HW1 5652   3.681   1.795   4.541  4.7598  0.4910  0.3112
 1486SOL    HW2 5653   3.645   1.735   4.675  1.4249 -0.7402 -1.0341
 1487SOL     OW 5654   4.204   5.363   0.899  0.2423 -0.4221 -0.1431
 1487SOL    HW1 5655   4.157   5.348   0.818 -0.1146  1.4909 -0.3427
 1487SOL    HW2 5656   4.138   5.394   0.961  0.9695  1.0398 -0.0438
 1488SOL     OW 5657   2.475   4.282   3.098 -0.4233  0.0664 -0.1174
 1488SOL    HW1 5658   2.486   4.373   3.126 -3.4432  0.2174  0.9574
 1488SOL    HW2 5659   2.541   4.233   3.149  2.2168  1.6747 -1.7298
 1489SOL     OW 5660   5.281   3.575   8.439 -0.1583  0.2557  0.6922
 1489SOL    HW1 5661   5.340   3.513   8.483  0.5347 -0.8950 -1.6875
 1489SOL    HW2 5662   5.325   3.597   8.357 -1.6190  1.8873  0.2695
 1490SOL     OW 5663   1.004   5.382   6.055  0.1313 -0.4601 -0.3996
 1490SOL    HW1 5664   0.952   5.460   6.034  0.0489 -1.0269 -2.5395
 1490SOL    HW2 5665   1.091   5.402   6.020  0.1821 -1.1962 -0.7152
 1491SOL     OW 5666   1.747   4.160   4.360  0.4473  0.1350  0.1916
 1491SOL    HW1 5667   1.721   4.241   4.405  0.3005  0.6431 -0.7710
 1491SOL    HW2 5668   1.665   4.123   4.327  0.5193 -0.3866  0.5963
 1492SOL     OW 5669   2.152   5.839   3.489 -0.2690  0.6409 -0.1937
 1492SOL    HW1 5670   2.195   5.924   3.487  0.1530  0.4734 -3.1642
 1492SOL    HW2 5671   2.199   5.789   3.556  4.9031  0.2615 -3.5202
 1493SOL     OW 5672   7.893   1.209   1.071  0.4684  0.1348 -0.2021
 1493SOL    HW1 5673   7.858   1.166   1.149  1.2128 -1.1154 -0.5280
 1493SOL    HW2 5674   7.844   1.169   0.998  1.3023 -0.3167 -0.5235
 1494SOL     OW 5675   5.496   3.877   6.787 -0.1512  0.2477 -0.1462
 1494SOL    HW1 5676   5.542   3.938   6.844 -0.7370 -0.6779  1.3682
 1494SOL    HW2 5677   5.554   3.865   6.712  1.8594 -0.4568  1.4391
 1495SOL     OW 5678   0.758   5.751   8.326 -0.2480  0.3957  0.2711
 1495SOL    HW1 5679   0.852   5.743   8.309 -0.2450  2.3603 -1.0394
 1495SOL    HW2 5680   0.721   5.666   8.304  1.3398 -0.7921  1.9551
 1496SOL     OW 5681   3.871   5.517   0.388  0.2160 -0.9327 -0.2962
 1496SOL    HW1 5682   3.886   5.607   0.359 -0.0838 -0.9966 -0.6584
 1496SOL    HW2 5683   3.831   5.474   0.312  0.2191 -1.3305 -0.0736
 1497SOL     OW 5684   4.267   0.357   5.512 -0.0067 -0.1127 -0.5894
 1497SOL    HW1 5685   4.340   0.336   5.454  0.3630 -2.3419  0.5642
 1497SOL    HW2 5686   4.211   0.280   5.509  0.5252 -0.7980  2.6577
 1498SOL     OW 5687   8.346   6.067   2.889  0.8461 -0.0264  0.0738
 1498SOL    HW1 5688   8.393   6.064   2.972  0.9244  0.0237  0.0319
 1498SOL    HW2 5689   8.279   6.134   2.902  2.0498  1.3567 -0.5142
 1499SOL     OW 5690   6.094   1.402   4.159 -0.3931  0.4882 -0.5018
 1499SOL    HW1 5691   6.120   1.332   4.098  2.0945  1.6536 -0.9091
 1499SOL    HW2 5692   6.025   1.449   4.114 -1.7757 -1.3653 -0.4255
 1500SOL     OW 5693   5.980   2.430   3.533 -0.2837 -0.4613 -0.3887
 1500SOL    HW1 5694   5.968   2.524   3.542  2.4276 -0.1679  0.9308
 1500SOL    HW2 5695   5.977   2.415   3.438  0.5098  1.1709 -0.7128
 1501SOL     OW 5696   6.323   0.189   1.471 -0.5514 -0.1218 -0.3398
 1501SOL    HW1 5697   6.285   0.273   1.494  1.8481  0.7515  0.7392
 1501SOL    HW2 5698   6.342   0.147   1.555  3.4392  0.7899 -0.6158
 1502SOL     OW 5699   3.234   4.953   1.597  0.0352  0.2668  0.1170
 1502SOL    HW1 5700   3.155   4.984   1.552  0.0945  0.5716  0.2192
 1502SOL    HW2 5701   3.278   5.033   1.626  0.5664  0.1105 -0.2522
 1503SOL     OW 5702   5.596   7.482   2.778  0.0781 -0.1788 -1.0317
 1503SOL    HW1 5703   5.674   7.527   2.811  1.0382 -3.3740  1.5360
 1503SOL    HW2 5704   5.523   7.537   2.806  1.2390  2.1397 -2.2358
 1504SOL     OW 5705   0.342   2.741   6.255 -0.5584  0.0219 -0.3971
 1504SOL    HW1 5706   0.410   2.809   6.252  0.1345 -0.6081  0.5792
 1504SOL    HW2 5707   0.275   2.777   6.312 -0.1853 -0.1176  0.1327
 1505SOL     OW 5708   1.633   0.823   3.794 -0.3393 -0.7509 -0.1356
 1505SOL    HW1 5709   1.726   0.825   3.819 -0.4611  0.5798  0.2703
 1505SOL    HW2 5710   1.633   0.849   3.701 -0.2997 -0.9121 -0.1818
 1506SOL     OW 5711   4.436   5.445   3.115  0.0216 -0.0653  0.4710
 1506SOL    HW1 5712   4.507   5.381   3.107  0.2034 -0.1886  2.4163
 1506SOL    HW2 5713   4.479   5.529   3.101  1.2407  0.0921  3.9658
 1507SOL     OW 5714   7.370   1.561   6.949  0.3656 -0.2603 -0.2701
 1507SOL    HW1 5715   7.393   1.497   7.016  1.3272  0.5044  0.1662
 1507SOL    HW2 5716   7.427   1.636   6.968  1.4200 -0.4069 -2.5757
 1508SOL     OW 5717   0.215   3.504   4.879 -0.4244  0.7279  0.5568
 1508SOL    HW1 5718   0.136   3.463   4.843 -1.1741  0.8856  1.9564
 1508SOL    HW2 5719   0.209   3.595   4.852  1.0937  0.0867 -2.3081
 1509SOL     OW 5720   6.448   2.144   6.074  0.3272 -0.0957 -0.0314
 1509SOL    HW1 5721   6.381   2.210   6.060  0.7153  0.0149 -1.5180
 1509SOL    HW2 5722   6.409   2.063   6.041  1.2531  0.1593 -1.8585
 1510SOL     OW 5723   3.420   4.424   8.428 -0.4697  0.3237  0.0033
 1510SOL    HW1 5724   3.403   4.410   8.522  1.6044  1.6580  0.6539
 1510SOL    HW2 5725   3.497   4.480   8.426 -1.2234  1.4308 -2.5228
 1511SOL     OW 5726   3.950   2.665   7.108  0.2340  0.1100 -0.1624
 1511SOL    HW1 5727   3.871   2.638   7.155 -0.4988  0.6211 -1.0838
 1511SOL    HW2 5728   3.984   2.584   7.070 -0.5149  0.0516 -0.7448
 1512SOL     OW 5729   5.618   0.828   0.331 -0.8194 -0.2412 -0.3258
 1512SOL    HW1 5730   5.543   0.769   0.330 -1.3835  0.4534  0.0913
 1512SOL    HW2 5731   5.612   0.874   0.415  0.2086 -0.3388 -0.1827
 1513SOL     OW 5732   4.430   3.215   1.815 -0.3890  0.1581  0.0814
 1513SOL    HW1 5733   4.468   3.148   1.872 -0.6848 -0.6695 -0.6749
 1513SOL    HW2 5734   4.494   3.287   1.816 -0.5202  0.2930  1.6684
 1514SOL     OW 5735   0.264   8.336   3.092  0.3056  0.2480 -0.6950
 1514SOL    HW1 5736   0.248   8.261   3.035  3.6198 -0.7290 -0.5348
 1514SOL    HW2 5737   0.195   8.331   3.158  0.5835 -2.8660 -0.5052
 1515SOL     OW 5738   2.744   7.751   1.829 -0.7492  0.0478 -0.6440
 1515SOL    HW1 5739   2.831   7.784   1.805 -1.3126  0.3092 -2.4960
 1515SOL    HW2 5740   2.740   7.762   1.924  0.7073  1.3482 -0.6862
 1516SOL     OW 5741   4.414   3.617   2.745  0.6953  0.0761 -0.2164
 1516SOL    HW1 5742   4.364   3.546   2.785 -0.2323  1.4288  1.1299
 1516SOL    HW2 5743   4.381   3.696   2.788  2.4029  1.2303 -0.9508
 1517SOL     OW 5744   0.734   5.189   8.594 -0.3260  0.4687  0.0344
 1517SOL    HW1 5745   0.755   5.245   8.668  0.6306 -1.2660  1.1559
 1517SOL    HW2 5746   0.659   5.231   8.552  1.4825  3.5998 -0.3842
 1518SOL     OW 5747   8.214   4.763   0.148 -0.2168  0.0991 -0.8526
 1518SOL    HW1 5748   8.174   4.839   0.107 -0.1655  0.5801 -0.0474
 1518SOL    HW2 5749   8.190   4.689   0.093 -2.5224  0.3159 -0.2272
 1519SOL     OW 5750   4.769   6.334   2.984  0.1989  0.7481  0.4918
 1519SOL    HW1 5751   4.845   6.283   3.014 -0.1631 -0.1103 -0.0136
 1519SOL    HW2 5752   4.782   6.342   2.890 -0.6970 -0.0268  0.2914
 1520SOL     OW 5753   2.838   3.822   1.410  0.5511  0.0972  0.8921
 1520SOL    HW1 5754   2.824   3.843   1.318 -1.2628 -0.4298  1.0062
 1520SOL    HW2 5755   2.885   3.739   1.410 -0.8292 -0.7200  0.3988
 1521SOL     OW 5756   7.531   3.121   6.413 -0.5369  0.7077  0.2810
 1521SOL    HW1 5757   7.452   3.088   6.370  0.0216 -0.1123 -0.1472
 1521SOL    HW2 5758   7.527   3.216   6.402 -1.3140  0.6475  0.0031
 1522SOL     OW 5759   3.956   8.409   3.901 -0.2349 -0.2138 -0.1575
 1522SOL    HW1 5760   3.919   8.334   3.949 -1.7435  0.3705 -0.3366
 1522SOL    HW2 5761   3.888   8.477   3.908  1.0458  1.1007 -0.1082
 1523SOL     OW 5762   2.125   8.441   4.774  0.5152 -0.1495 -0.3503
 1523SOL    HW1 5763   2.095   8.487   4.853 -0.0977  0.6666 -1.0451
 1523SOL    HW2 5764   2.058   8.460   4.708 -0.2308 -2.7413 -0.4593
 1524SOL     OW 5765   2.597   8.053   2.150  0.0829 -0.8768  0.1467
 1524SOL    HW1 5766   2.636   8.132   2.188  0.4052 -1.0681  0.2153
 1524SOL    HW2 5767   2.507   8.052   2.184 -0.3040  0.0817 -0.7645
 1525SOL     OW 5768   5.423   8.110   7.903  0.2298  0.3690 -0.7387
 1525SOL    HW1 5769   5.338   8.151   7.916 -0.4056 -0.7461 -1.2354
 1525SOL    HW2 5770   5.485   8.183   7.904 -0.8040  1.2790 -1.0886
 1526SOL     OW 5771   3.300   0.097   4.060  0.0892  0.2920 -0.1193
 1526SOL    HW1 5772   3.288   0.118   3.968 -0.2837 -0.1223 -0.1687
 1526SOL    HW2 5773   3.280   0.004   4.066 -2.8562  0.8816  0.8698
 1527SOL     OW 5774   3.828   0.639   5.776  0.4840 -0.4911 -0.7410
 1527SOL    HW1 5775   3.831   0.675   5.688  1.7069 -0.0405 -0.5286
 1527SOL    HW2 5776   3.918   0.645   5.808  0.1961 -1.2971  0.2809
 1528SOL     OW 5777   3.050   2.839   3.549  0.0037  0.2341 -0.2560
 1528SOL    HW1 5778   3.110   2.768   3.525  2.2027  0.9543  2.6611
 1528SOL    HW2 5779   3.012   2.811   3.632  0.6296  2.2564  0.7572
 1529SOL     OW 5780   2.047   1.011   5.139 -0.5136  0.1028  0.5030
 1529SOL    HW1 5781   2.126   0.963   5.164  0.3513  0.9340 -0.5208
 1529SOL    HW2 5782   2.007   0.958   5.070 -1.2182 -0.6464  1.4769
 1530SOL     OW 5783   5.988   2.634   2.060 -0.0423 -0.3732 -0.0141
 1530SOL    HW1 5784   5.950   2.720   2.040 -1.1398 -0.6821  0.6095
 1530SOL    HW2 5785   6.082   2.648   2.059 -0.1983  0.7649 -0.2567
 1531SOL     OW 5786   7.229   8.251   3.273 -0.2767 -0.2185  0.0835
 1531SOL    HW1 5787   7.186   8.336   3.261 -0.8225 -0.4816  0.1519
 1531SOL    HW2 5788   7.318   8.265   3.242 -1.0111 -0.2650 -2.2430
 1532SOL     OW 5789   6.816   3.795   6.864  0.4176  0.1253  0.3032
 1532SOL    HW1 5790   6.864   3.713   6.878  0.4587  0.1633  0.3869
 1532SOL    HW2 5791   6.836   3.848   6.941  1.1702  0.5950 -0.2065
 1533SOL     OW 5792   2.861   2.742   8.402 -0.2691 -0.1771  0.1879
 1533SOL    HW1 5793   2.808   2.821   8.389 -0.5302 -0.7276 -2.8044
 1533SOL    HW2 5794   2.797   2.672   8.416 -0.0558 -0.0046  2.2771
 1534SOL     OW 5795   3.979   5.743   1.160 -0.2570 -0.5742  0.2186
 1534SOL    HW1 5796   4.025   5.660   1.175  1.1884  0.2220  0.3787
 1534SOL    HW2 5797   3.919   5.751   1.234 -0.6734 -1.6336  0.0152
 1535SOL     OW 5798   7.348   2.006   3.115  0.6505 -0.8632 -0.0043
 1535SOL    HW1 5799   7.390   2.035   3.034  2.3383 -0.4822  0.9756
 1535SOL    HW2 5800   7.269   2.060   3.121  0.6154 -0.7300 -1.2515
 1536SOL     OW 5801   5.894   1.005   6.280 -1.3440  0.7415  0.2287
 1536SOL    HW1 5802   5.971   1.011   6.336 -0.8588  2.7249 -0.5755
 1536SOL    HW2 5803   5.827   1.057   6.325 -1.3439  1.2910 -0.3877
 1537SOL     OW 5804   7.816   4.049   8.126 -0.1649 -0.2899  0.2207
 1537SOL    HW1 5805   7.873   3.980   8.093 -0.0987 -0.4576  0.6797
 1537SOL    HW2 5806   7.875   4.119   8.153 -0.1948 -0.3461  0.4290
 1538SOL     OW 5807   7.455   4.542   5.804 -0.3300  0.2199 -0.2137
 1538SOL    HW1 5808   7.446   4.449   5.784  1.0883 -0.3051  1.3606
 1538SOL    HW2 5809   7.550   4.556   5.807 -0.4705  0.9820  2.5764
 1539SOL     OW 5810   5.860   2.495   5.954  0.1703  0.1199 -0.1991
 1539SOL    HW1 5811   5.919   2.426   5.986 -2.3561 -2.1550 -0.0575
 1539SOL    HW2 5812   5.862   2.561   6.023  0.8776 -0.9191  0.8225
 1540SOL     OW 5813   8.290   3.843   2.074  0.0605  0.0922 -0.3104
 1540SOL    HW1 5814   8.195   3.854   2.068 -0.2524 -1.2876  1.4090
 1540SOL    HW2 5815   8.325   3.930   2.052 -1.6509  1.0013  0.3383
 1541SOL     OW 5816   8.188   1.306   5.542  0.5210 -0.2958 -0.4117
 1541SOL    HW1 5817   8.145   1.248   5.480 -1.9727 -1.1038  1.8824
 1541SOL    HW2 5818   8.266   1.257   5.570  0.1994 -1.0846 -0.8743
 1542SOL     OW 5819   7.870   5.650   0.019  0.3587  0.2664  0.1390
 1542SOL    HW1 5820   7.833   5.736   0.038  2.9778  1.2968  1.1673
 1542SOL    HW2 5821   7.956   5.652   0.061 -0.0301 -3.4153  1.4647
 1543SOL     OW 5822   6.725   6.513   4.197  0.1138  0.2969  0.1677
 1543SOL    HW1 5823   6.758   6.506   4.108  0.4664 -1.2673  0.3805
 1543SOL    HW2 5824   6.796   6.554   4.246  0.0372  0.8776 -0.2047
 1544SOL     OW 5825   0.943   0.253   0.285  0.0380  0.1590  0.1019
 1544SOL    HW1 5826   1.025   0.272   0.239  0.0591  1.1811  0.5400
 1544SOL    HW2 5827   0.962   0.274   0.377 -0.5115 -0.2679  0.3200
 1545SOL     OW 5828   8.026   4.661   2.802  0.1626 -0.4476  0.3358
 1545SOL    HW1 5829   8.105   4.614   2.828  0.1591 -0.3373  0.5472
 1545SOL    HW2 5830   8.046   4.753   2.819 -0.2508 -0.4773  1.0225
 1546SOL     OW 5831   8.319   0.996   1.938  0.5213  0.1713 -0.3758
 1546SOL    HW1 5832   8.229   1.027   1.936  0.9812  1.7570  1.1422
 1546SOL    HW2 5833   8.313   0.909   1.979 -0.4560 -0.4685 -1.8035
 1547SOL     OW 5834   2.642   7.777   8.123 -0.0504  0.5272  0.1633
 1547SOL    HW1 5835   2.565   7.833   8.132  0.8973  2.3997 -2.3035
 1547SOL    HW2 5836   2.625   7.726   8.043  1.1493  0.8282 -0.3031
 1548SOL     OW 5837   2.177   5.960   7.058  0.1846  0.1039  0.0467
 1548SOL    HW1 5838   2.248   5.981   6.997 -0.8710 -0.6067 -1.4914
 1548SOL    HW2 5839   2.118   6.035   7.053  0.7683  0.6879  1.3169
 1549SOL     OW 5840   0.306   2.824   7.904 -0.0232 -0.4464  0.4322
 1549SOL    HW1 5841   0.247   2.768   7.954 -0.4506  0.1592  0.6031
 1549SOL    HW2 5842   0.364   2.863   7.969 -0.1799 -0.1418  0.3917
 1550SOL     OW 5843   7.438   4.528   8.365 -0.1334 -0.7113 -0.0219
 1550SOL    HW1 5844   7.436   4.505   8.458  0.9132  0.0469  0.1958
 1550SOL    HW2 5845   7.526   4.561   8.350 -0.3723 -0.5843 -1.2353
 1551SOL     OW 5846   2.582   6.050   8.483 -0.0549 -0.2163 -0.1770
 1551SOL    HW1 5847   2.509   6.104   8.453 -0.2778 -0.2363  0.3084
 1551SOL    HW2 5848   2.656   6.078   8.431 -0.3514 -0.0040 -0.4876
 1552SOL     OW 5849   2.200   5.670   7.385  0.4911  0.2729 -0.0001
 1552SOL    HW1 5850   2.237   5.753   7.355 -1.9369  1.1281 -0.9009
 1552SOL    HW2 5851   2.221   5.608   7.316  0.8773  0.5472 -0.1318
 1553SOL     OW 5852   4.570   6.817   0.183 -0.1369 -0.5318  0.4655
 1553SOL    HW1 5853   4.612   6.893   0.141 -0.8005  0.0827  0.8765
 1553SOL    HW2 5854   4.639   6.752   0.191  0.0318 -0.6775 -1.5780
 1554SOL     OW 5855   7.373   0.051   2.159  0.2983  0.4017  0.2493
 1554SOL    HW1 5856   7.398  -0.016   2.096  1.1267  0.3104  0.6689
 1554SOL    HW2 5857   7.293   0.016   2.199 -0.7761  0.8839 -1.3700
 1555SOL     OW 5858   6.650   5.906   7.117 -0.2205  0.2638 -0.3097
 1555SOL    HW1 5859   6.718   5.859   7.068 -0.7296 -0.0221 -0.7403
 1555SOL    HW2 5860   6.624   5.846   7.186  0.9019  0.8798  0.7038
 1556SOL     OW 5861   8.062   1.947   2.826  0.2162  0.1057  0.0365
 1556SOL    HW1 5862   7.970   1.966   2.843  0.3279 -0.9904  2.2177
 1556SOL    HW2 5863   8.109   2.026   2.853  0.1082 -0.4181  1.8908
 1557SOL     OW 5864   0.282   7.132   2.108  0.2040 -0.4251 -0.4239
 1557SOL    HW1 5865   0.199   7.094   2.078 -1.3739  0.6216  2.2553
 1557SOL    HW2 5866   0.271   7.226   2.093 -0.3490  0.0517  2.4723
 1558SOL     OW 5867   8.061   8.257   7.944 -0.2228 -0.1912 -0.1106
 1558SOL    HW1 5868   8.087   8.271   8.035  0.8088 -0.8348 -0.2932
 1558SOL    HW2 5869   8.062   8.162   7.933 -0.9926 -0.1483 -0.6172
 1559SOL     OW 5870   4.000   3.216   6.269  0.5114 -0.0968 -0.2059
 1559SOL    HW1 5871   3.963   3.222   6.357  0.6533 -1.3052 -0.0369
 1559SOL    HW2 5872   3.941   3.157   6.223  1.5644 -1.1487 -0.2719
 1560SOL     OW 5873   3.225   6.178   8.244 -0.5460  0.1846  0.2760
 1560SOL    HW1 5874   3.283   6.192   8.319  0.4418  0.0644 -0.4355
 1560SOL    HW2 5875   3.264   6.105   8.197  0.3248  1.8200 -1.7156
 1561SOL     OW 5876   4.851   5.284   2.365  0.1636  0.3513  0.1485
 1561SOL    HW1 5877   4.828   5.376   2.357 -0.0616  0.2798 -0.0531
 1561SOL    HW2 5878   4.777   5.245   2.412 -0.8258 -0.1424 -1.6856
 1562SOL     OW 5879   3.447   7.318   4.681 -0.2662  0.2019  0.3241
 1562SOL    HW1 5880   3.533   7.333   4.642  0.1272  0.4671  1.2597
 1562SOL    HW2 5881   3.387   7.374   4.632  0.4182  1.4207  0.8432
 1563SOL     OW 5882   0.063   0.183   4.325  0.1762 -0.5223 -0.5009
 1563SOL    HW1 5883  -0.011   0.142   4.370  0.1537 -2.0624 -1.8157
 1563SOL    HW2 5884   0.088   0.256   4.381 -0.8089 -1.4149  1.1964
 1564SOL     OW 5885   4.111   7.229   3.607 -0.0563  0.1083  0.4160
 1564SOL    HW1 5886   4.078   7.218   3.696 -0.0853 -2.8680  0.1455
 1564SOL    HW2 5887   4.204   7.208   3.613 -0.3127 -1.4136 -0.4077
 1565SOL     OW 5888   5.409   0.761   0.022  0.1183  0.6121 -0.0039
 1565SOL    HW1 5889   5.503   0.770   0.037  0.5833 -1.6558 -1.1720
 1565SOL    HW2 5890   5.380   0.700   0.090 -0.0984 -0.1765 -0.7809
 1566SOL     OW 5891   5.414   7.640   4.645  0.2779  0.6176  0.0479
 1566SOL    HW1 5892   5.503   7.610   4.626  0.8409 -0.4398  3.5842
 1566SOL    HW2 5893   5.387   7.588   4.721 -3.9006  0.0123 -1.5241
 1567SOL     OW 5894   7.978   1.911   3.912 -0.3297 -0.2645  0.1765
 1567SOL    HW1 5895   7.917   1.886   3.842 -0.7958  4.1218 -1.2733
 1567SOL    HW2 5896   8.053   1.948   3.866  1.2969 -1.0704  2.0390
 1568SOL     OW 5897   3.447   3.890   6.743  0.2079 -0.0576  0.0841
 1568SOL    HW1 5898   3.515   3.877   6.677  1.2331 -0.0269  1.1031
 1568SOL    HW2 5899   3.482   3.958   6.800 -2.5206  3.1910 -1.7806
 1569SOL     OW 5900   2.491   4.626   6.731 -0.5362  0.7720 -0.0377
 1569SOL    HW1 5901   2.506   4.596   6.641  0.4348  1.7393 -0.2214
 1569SOL    HW2 5902   2.578   4.626   6.771 -0.8393  1.1626  0.6372
 1570SOL     OW 5903   1.613   7.174   1.437 -0.0445  0.5408 -0.0929
 1570SOL    HW1 5904   1.589   7.189   1.346 -0.1227  0.6035 -0.0613
 1570SOL    HW2 5905   1.537   7.202   1.488 -0.5025 -0.6791 -0.0724
 1571SOL     OW 5906   1.940   7.276   6.576  0.0307 -0.3509 -0.4192
 1571SOL    HW1 5907   1.871   7.301   6.638 -0.4286  0.5291 -1.2646
 1571SOL    HW2 5908   2.020   7.316   6.611 -0.4481  1.2052 -1.0313
 1572SOL     OW 5909   8.327   3.583   3.497  0.0293  0.5066 -0.3944
 1572SOL    HW1 5910   8.246   3.581   3.547  0.5724 -0.3395  0.4816
 1572SOL    HW2 5911   8.319   3.510   3.436  1.1075 -1.1532  1.3367
 1573SOL     OW 5912   4.450   1.974   1.384 -0.2604 -0.7378  0.1002
 1573SOL    HW1 5913   4.456   1.889   1.341  0.0897 -1.3314  1.2668
 1573SOL    HW2 5914   4.513   2.029   1.337  0.4592 -1.4981  0.1408
 1574SOL     OW 5915   3.140   1.477   8.486  0.1612  0.2051  0.3040
 1574SOL    HW1 5916   3.219   1.505   8.440 -0.0640 -0.4561 -0.5159
 1574SOL    HW2 5917   3.071   1.480   8.419 -0.3614  0.0978  0.8261
 1575SOL     OW 5918   0.462   2.733   4.654  0.1501 -0.3968 -0.2783
 1575SOL    HW1 5919   0.446   2.777   4.737  0.0446 -0.9413 -0.0029
 1575SOL    HW2 5920   0.533   2.783   4.613  0.1228 -0.0577  0.0833
 1576SOL     OW 5921   7.460   2.481   0.184 -0.2679 -0.4438  0.3921
 1576SOL    HW1 5922   7.531   2.546   0.182 -0.0585 -0.6367  1.2061
 1576SOL    HW2 5923   7.387   2.526   0.225 -0.4823 -0.3802 -0.0554
 1577SOL     OW 5924   3.425   0.571   7.801 -0.3664 -0.5630 -0.3069
 1577SOL    HW1 5925   3.378   0.496   7.766 -0.6818 -0.9378  0.8747
 1577SOL    HW2 5926   3.356   0.633   7.826 -0.3079 -1.2322  1.7010
 1578SOL     OW 5927   0.021   7.937   5.315  0.7406 -0.1440 -0.0713
 1578SOL    HW1 5928   0.053   8.005   5.374  1.0907  0.9198 -1.4491
 1578SOL    HW2 5929   0.021   7.978   5.228 -0.6023 -1.3767 -0.7003
 1579SOL     OW 5930   5.707   2.632   3.918 -0.2286  0.5015  0.2635
 1579SOL    HW1 5931   5.728   2.597   4.005 -0.1397  1.2749  0.5571
 1579SOL    HW2 5932   5.622   2.673   3.928 -0.6172 -0.1655 -0.2373
 1580SOL     OW 5933   7.739   2.182   4.826 -0.4817 -0.3230 -0.3816
 1580SOL    HW1 5934   7.647   2.206   4.824 -0.7098 -1.2015 -0.7802
 1580SOL    HW2 5935   7.755   2.153   4.916 -0.4593  0.3122 -0.1759
 1581SOL     OW 5936   8.422   5.102   1.143  0.4542  0.5249  0.2768
 1581SOL    HW1 5937   8.488   5.033   1.150 -0.9780 -0.8498  0.9526
 1581SOL    HW2 5938   8.429   5.133   1.053  2.7353  1.2205  0.6427
 1582SOL     OW 5939   1.106   3.632   3.063 -0.7816  0.0823 -0.1335
 1582SOL    HW1 5940   1.143   3.609   3.148 -0.6006 -1.1549 -0.5306
 1582SOL    HW2 5941   1.026   3.580   3.056 -0.2709 -0.6180 -1.1286
 1583SOL     OW 5942   7.691   5.574   6.211  0.2213  0.0716 -0.2887
 1583SOL    HW1 5943   7.663   5.659   6.177 -1.5433 -0.6909 -0.8707
 1583SOL    HW2 5944   7.730   5.529   6.136 -0.6676 -0.3712 -0.4941
 1584SOL     OW 5945   4.417   4.545   1.538  0.0855 -0.0501 -0.3672
 1584SOL    HW1 5946   4.364   4.552   1.617 -2.1229  1.2932 -1.8569
 1584SOL    HW2 5947   4.501   4.582   1.563  0.5297 -2.3933  2.1328
 1585SOL     OW 5948   7.324   0.856   4.219 -0.3855 -0.1386 -0.3249
 1585SOL    HW1 5949   7.301   0.798   4.146 -0.4921  0.6215 -0.9176
 1585SOL    HW2 5950   7.255   0.923   4.218 -0.4422 -0.1745  0.5505
 1586SOL     OW 5951   2.757   5.546   3.842  0.2855 -0.6902  0.0664
 1586SOL    HW1 5952   2.715   5.531   3.927 -1.8146  1.5113 -0.4513
 1586SOL    HW2 5953   2.705   5.497   3.780 -0.3769  0.4775 -0.3382
 1587SOL     OW 5954   1.550   3.267   4.401  0.1965 -0.1295 -0.3079
 1587SOL    HW1 5955   1.505   3.351   4.399 -0.2784 -0.3850 -1.9729
 1587SOL    HW2 5956   1.485   3.205   4.434 -0.0565 -0.1534 -0.8404
 1588SOL     OW 5957   0.540   1.204   4.009 -0.0149  0.7962  0.0600
 1588SOL    HW1 5958   0.576   1.195   3.921 -0.6932  2.1555 -0.3883
 1588SOL    HW2 5959   0.507   1.117   4.031 -1.0864  0.7285 -1.6176
 1589SOL     OW 5960   0.047   2.270   3.121 -0.2634 -0.0277 -0.1806
 1589SOL    HW1 5961   0.078   2.208   3.187 -1.8693 -0.8606 -0.1534
 1589SOL    HW2 5962   0.061   2.356   3.160 -0.7132 -0.4899  1.0510
 1590SOL     OW 5963   2.521   7.598   6.535  0.2734 -0.3715  0.1683
 1590SOL    HW1 5964   2.505   7.602   6.441  1.8185 -1.7506 -0.2132
 1590SOL    HW2 5965   2.614   7.621   6.544 -0.1222  0.8845  1.5071
 1591SOL     OW 5966   7.678   3.149   1.633 -0.4026  0.2297 -0.3230
 1591SOL    HW1 5967   7.667   3.230   1.583  0.2877 -0.3033 -1.3733
 1591SOL    HW2 5968   7.709   3.178   1.718 -1.3345  1.1449 -0.2740
 1592SOL     OW 5969   7.888   1.585   3.722 -0.1735 -0.3799  0.2444
 1592SOL    HW1 5970   7.861   1.533   3.646 -0.9195  0.8727 -0.3665
 1592SOL    HW2 5971   7.982   1.570   3.729 -0.0475 -0.2774 -1.1006
 1593SOL     OW 5972   4.509   8.333   7.079 -0.1486 -0.0874  0.0985
 1593SOL    HW1 5973   4.546   8.421   7.070  1.3316 -0.5623  1.1327
 1593SOL    HW2 5974   4.556   8.295   7.153 -1.6522 -1.3164  0.4689
 1594SOL     OW 5975   1.722   6.613   0.468 -0.1016 -0.5429 -0.3543
 1594SOL    HW1 5976   1.814   6.604   0.443 -0.4974  2.0407 -3.3168
 1594SOL    HW2 5977   1.687   6.524   0.463  1.8955 -1.3829 -0.5273
 1595SOL     OW 5978   6.951   2.956   4.570  0.3596  0.1144 -0.2829
 1595SOL    HW1 5979   6.989   2.872   4.545  1.8587  0.7417 -0.1940
 1595SOL    HW2 5980   6.951   2.955   4.665 -1.5386 -0.5949 -0.2530
 1596SOL     OW 5981   2.260   4.316   1.410  0.1592  0.4643  0.3078
 1596SOL    HW1 5982   2.297   4.252   1.471 -0.2199 -0.2589 -0.2057
 1596SOL    HW2 5983   2.290   4.401   1.443  3.1736 -0.1148 -0.6863
 1597SOL     OW 5984   3.349   2.613   1.629 -0.4491  0.4723  0.3055
 1597SOL    HW1 5985   3.274   2.555   1.643  0.3916 -0.4323  1.2270
 1597SOL    HW2 5986   3.318   2.699   1.654 -0.9777 -0.0179  1.4031
 1598SOL     OW 5987   5.205   2.674   8.110 -0.0106 -0.0476 -0.4727
 1598SOL    HW1 5988   5.236   2.663   8.200 -1.0380 -1.4302 -0.2353
 1598SOL    HW2 5989   5.280   2.706   8.062  0.1450  2.3382  1.1787
 1599SOL     OW 5990   7.779   2.782   5.190  0.0722  0.1225 -0.5630
 1599SOL    HW1 5991   7.782   2.809   5.098 -0.2677  3.4632  0.2680
 1599SOL    HW2 5992   7.687   2.763   5.207  0.2309 -1.1293 -1.0366
 1600SOL     OW 5993   2.593   6.598   6.370  0.5906  0.3402 -0.0860
 1600SOL    HW1 5994   2.581   6.526   6.432  0.5166  0.3275 -0.1143
 1600SOL    HW2 5995   2.641   6.559   6.297  0.7424  0.3730 -0.0036
 1601SOL     OW 5996   2.522   1.320   6.607 -0.3582  0.0340  0.4515
 1601SOL    HW1 5997   2.502   1.227   6.595 -1.0667  0.3181 -0.7891
 1601SOL    HW2 5998   2.486   1.362   6.529 -2.0159  1.6523  1.9697
 1602SOL     OW 5999   6.853   3.977   6.653 -0.4840 -0.0562  0.5009
 1602SOL    HW1 6000   6.827   3.939   6.737  1.1910  0.0820  1.1273
 1602SOL    HW2 6001   6.894   3.904   6.606  2.2628  0.7018  1.4950
 1603SOL     OW 6002   7.413   2.256   6.371  0.4056  0.1537  0.3575
 1603SOL    HW1 6003   7.404   2.167   6.336  0.3177 -0.2156  1.2810
 1603SOL    HW2 6004   7.506   2.276   6.363  0.3147  0.2728 -0.5222
 1604SOL     OW 6005   0.810   0.745   2.098  0.0644 -0.1014 -0.4905
 1604SOL    HW1 6006   0.852   0.660   2.091  1.6919  0.7611 -1.9936
 1604SOL    HW2 6007   0.775   0.762   2.011 -1.8991  0.0118  0.2669
 1605SOL     OW 6008   0.758   5.365   0.212 -0.2376  0.2170 -0.2959
 1605SOL    HW1 6009   0.793   5.370   0.302  1.8966  1.2672 -1.1016
 1605SOL    HW2 6010   0.669   5.399   0.219 -0.3807 -0.4068  1.5333
 1606SOL     OW 6011   2.989   6.354   5.176 -0.1559  0.6016 -0.4793
 1606SOL    HW1 6012   2.925   6.363   5.247 -1.2813 -0.7088 -1.2737
 1606SOL    HW2 6013   2.984   6.262   5.151  3.2028  0.0289  0.4659
 1607SOL     OW 6014   3.661   3.076   7.458 -0.2551  0.3934 -0.3098
 1607SOL    HW1 6015   3.689   2.998   7.506 -0.6466  1.2019  1.2750
 1607SOL    HW2 6016   3.579   3.049   7.416 -0.2729 -0.1170  0.0399
 1608SOL     OW 6017   5.522   5.880   5.507 -0.5800 -0.0628  0.3728
 1608SOL    HW1 6018   5.457   5.949   5.503  0.5433  1.0284  0.4546
 1608SOL    HW2 6019   5.554   5.882   5.597  0.5965  0.3930 -0.0440
 1609SOL     OW 6020   5.993   2.724   3.572 -0.5563 -0.7835 -0.0098
 1609SOL    HW1 6021   5.912   2.770   3.592  0.6269  1.2050  0.5014
 1609SOL    HW2 6022   6.053   2.749   3.643  1.0459 -0.7190 -1.3306
 1610SOL     OW 6023   3.733   2.909   3.509  0.7264  0.9159  0.1600
 1610SOL    HW1 6024   3.720   2.978   3.575  2.4916  1.9367 -0.4954
 1610SOL    HW2 6025   3.792   2.847   3.551 -0.5300 -0.0306  0.5929
 1611SOL     OW 6026   8.032   5.348   6.947  0.1829  0.0807 -0.2621
 1611SOL    HW1 6027   7.995   5.421   6.897  1.1699  0.3939 -0.5605
 1611SOL    HW2 6028   7.978   5.343   7.026  0.7928  1.8900  0.3203
 1612SOL     OW 6029   3.224   4.370   0.317  0.1850  0.1529  0.1155
 1612SOL    HW1 6030   3.156   4.328   0.264 -0.7775  0.3014  1.1990
 1612SOL    HW2 6031   3.215   4.463   0.298  1.6460  0.0414 -1.4948
 1613SOL     OW 6032   4.990   5.188   0.095 -0.0201 -0.2374  0.3344
 1613SOL    HW1 6033   4.985   5.283   0.095 -0.5671 -0.2228  2.2913
 1613SOL    HW2 6034   4.928   5.161   0.026 -0.6961  0.8049  0.5115
 1614SOL     OW 6035   8.057   6.056   8.090 -0.7071 -0.2905  0.3779
 1614SOL    HW1 6036   8.016   5.971   8.104 -0.6895 -0.4682 -0.5504
 1614SOL    HW2 6037   8.146   6.035   8.061 -1.0157  0.0026 -0.8461
 1615SOL     OW 6038   5.767   5.301   1.865 -0.1604 -0.2373 -0.1484
 1615SOL    HW1 6039   5.714   5.379   1.849 -1.0467 -1.1219 -1.8577
 1615SOL    HW2 6040   5.734   5.265   1.947 -0.3953  0.6462  0.1509
 1616SOL     OW 6041   3.786   8.541   8.224 -0.2264 -0.4630 -0.0300
 1616SOL    HW1 6042   3.757   8.463   8.177 -0.7652  0.3779 -1.1369
 1616SOL    HW2 6043   3.876   8.554   8.195 -0.9198  0.7148 -1.8004
 1617SOL     OW 6044   2.901   5.488   6.139 -0.4584  0.1571 -0.0034
 1617SOL    HW1 6045   2.936   5.454   6.221  0.5117  1.6075  0.2007
 1617SOL    HW2 6046   2.920   5.419   6.075  1.9512  0.4748  0.2906
 1618SOL     OW 6047   6.648   6.120   2.316  0.2119  0.2237  0.4508
 1618SOL    HW1 6048   6.615   6.053   2.257 -0.8919  0.7980  0.3942
 1618SOL    HW2 6049   6.668   6.194   2.260  1.7689 -0.1490  0.4666
 1619SOL     OW 6050   4.424   4.846   0.093  0.6094 -0.0395  0.3427
 1619SOL    HW1 6051   4.385   4.824   0.008  0.7220 -0.5733  0.4252
 1619SOL    HW2 6052   4.516   4.821   0.084  0.8555  0.8515  0.2802
 1620SOL     OW 6053   0.275   0.792   7.610 -0.0025  0.1157  0.0271
 1620SOL    HW1 6054   0.266   0.713   7.557 -0.4695  0.0714  0.1674
 1620SOL    HW2 6055   0.305   0.760   7.695 -0.1598  0.0898  0.0738
 1621SOL     OW 6056   7.334   8.443   4.777  0.6729  0.2191 -0.5684
 1621SOL    HW1 6057   7.397   8.468   4.708  0.2386 -0.1673 -1.1188
 1621SOL    HW2 6058   7.287   8.523   4.797  2.3499  0.8973  0.9544
 1622SOL     OW 6059   6.235   7.006   4.401 -0.0663  0.2819 -0.0713
 1622SOL    HW1 6060   6.290   6.960   4.337 -2.2248 -1.4324 -0.8455
 1622SOL    HW2 6061   6.157   7.031   4.350 -2.7862 -2.8502  2.0932
 1623SOL     OW 6062   5.842   3.177   1.978 -0.6512  0.0357 -0.2464
 1623SOL    HW1 6063   5.901   3.212   2.046 -0.8382  0.1212 -0.1279
 1623SOL    HW2 6064   5.795   3.254   1.945 -0.4906  0.0078 -0.5428
 1624SOL     OW 6065   4.511   6.188   5.852  0.4652  0.2776 -0.0740
 1624SOL    HW1 6066   4.453   6.128   5.899  0.4778  1.2606  1.2719
 1624SOL    HW2 6067   4.489   6.176   5.760 -1.2870  0.0167  0.3400
 1625SOL     OW 6068   8.080   1.834   8.059 -0.0498 -0.1691 -0.3867
 1625SOL    HW1 6069   8.154   1.787   8.099  1.0416  0.5849 -1.4437
 1625SOL    HW2 6070   8.012   1.831   8.125  0.9291 -0.8801  0.6414
 1626SOL     OW 6071   8.466   6.985   8.191 -0.1027 -0.1935 -0.2124
 1626SOL    HW1 6072   8.459   6.936   8.109 -1.8660  0.0572 -0.2590
 1626SOL    HW2 6073   8.554   6.966   8.223  1.3519  1.1075 -3.0178
 1627SOL     OW 6074   2.077   5.137   4.739 -0.3305 -0.7516  0.5307
 1627SOL    HW1 6075   2.173   5.142   4.736 -0.3574  1.2629  1.0122
 1627SOL    HW2 6076   2.053   5.198   4.809 -1.9752 -1.1033  0.3067
 1628SOL     OW 6077   0.429   2.377   3.606 -0.2170 -0.8131 -0.8507
 1628SOL    HW1 6078   0.401   2.423   3.685  0.8538 -0.8736 -0.4085
 1628SOL    HW2 6079   0.381   2.295   3.608  0.2881 -1.1022  0.1103
 1629SOL     OW 6080   7.462   5.018   0.428 -0.1867  0.1055 -0.3037
 1629SOL    HW1 6081   7.367   5.035   0.430 -0.1924  0.0625  0.8816
 1629SOL    HW2 6082   7.497   5.087   0.372 -0.7337  1.2846  0.7373
 1630SOL     OW 6083   7.545   4.099   2.268 -0.0626  0.2000 -0.0886
 1630SOL    HW1 6084   7.525   4.093   2.361 -1.7726 -1.7456 -0.5098
 1630SOL    HW2 6085   7.639   4.117   2.265  1.0528 -3.9354  2.0971
 1631SOL     OW 6086   0.407   0.407   6.945 -0.1535 -0.0794  0.0743
 1631SOL    HW1 6087   0.434   0.338   7.006  0.5519  0.0409 -0.0930
 1631SOL    HW2 6088   0.326   0.375   6.907  0.3258 -0.9624 -0.2347
 1632SOL     OW 6089   3.852   5.193   2.741 -0.1262  0.5948  0.5143
 1632SOL    HW1 6090   3.796   5.263   2.777 -0.3474  1.4646 -1.4123
 1632SOL    HW2 6091   3.813   5.171   2.657  0.7931 -0.8539  0.4273
 1633SOL     OW 6092   0.336   3.466   8.369 -0.1403 -0.0602 -0.3553
 1633SOL    HW1 6093   0.362   3.453   8.278  1.0471 -1.6884  0.1596
 1633SOL    HW2 6094   0.277   3.542   8.367  1.4232  1.2179 -2.1979
 1634SOL     OW 6095   1.736   1.402   4.625 -0.4938  0.0143 -0.1492
 1634SOL    HW1 6096   1.764   1.400   4.533 -0.7258  3.4812 -0.4342
 1634SOL    HW2 6097   1.817   1.417   4.674 -0.8029  3.0935 -0.3584
 1635SOL     OW 6098   2.762   2.637   7.522 -0.0325  0.3183 -0.3665
 1635SOL    HW1 6099   2.704   2.565   7.545  0.6749  0.5059  2.2587
 1635SOL    HW2 6100   2.712   2.716   7.541 -0.6803  0.6154 -2.9204
 1636SOL     OW 6101   0.055   4.472   1.223 -0.1277 -0.4815  0.1068
 1636SOL    HW1 6102   0.044   4.554   1.174  1.7258  0.6512  1.4679
 1636SOL    HW2 6103  -0.034   4.443   1.240 -0.9062  2.0685  0.8766
 1637SOL     OW 6104   5.069   7.842   5.223 -0.3200 -0.1050  0.1347
 1637SOL    HW1 6105   4.987   7.844   5.174 -0.4955 -0.5401  0.4105
 1637SOL    HW2 6106   5.043   7.835   5.315  0.0158  0.4303  0.2759
 1638SOL     OW 6107   5.180   5.276   5.477 -0.1875  0.2969  0.2134
 1638SOL    HW1 6108   5.113   5.211   5.456 -0.2546  0.0110  1.2746
 1638SOL    HW2 6109   5.171   5.342   5.409 -0.2077 -0.7311 -0.8143
 1639SOL     OW 6110   0.121   4.353   6.109 -0.4566  0.2561  0.2818
 1639SOL    HW1 6111   0.179   4.284   6.078 -1.6753 -0.2396 -1.0147
 1639SOL    HW2 6112   0.165   4.434   6.086 -0.5644 -0.1133 -1.3495
 1640SOL     OW 6113   3.889   7.103   3.229 -0.2251  0.6496  1.1115
 1640SOL    HW1 6114   3.911   7.192   3.203  0.1042  0.5331  0.9915
 1640SOL    HW2 6115   3.908   7.100   3.322 -0.1660  0.6814  1.1003
 1641SOL     OW 6116   3.733   2.293   5.635 -0.4038 -0.1012  0.8800
 1641SOL    HW1 6117   3.745   2.281   5.541  0.9249 -1.4516  1.1923
 1641SOL    HW2 6118   3.658   2.354   5.642 -0.1717  0.4669 -1.0290
 1642SOL     OW 6119   3.903   6.175   5.805 -0.0423  0.4740  0.1690
 1642SOL    HW1 6120   3.849   6.249   5.776  0.2696  0.7841  0.3651
 1642SOL    HW2 6121   3.951   6.149   5.726 -0.5676  0.1206 -0.0324
 1643SOL     OW 6122   7.585   0.882   4.121 -0.2806  0.1912 -0.2486
 1643SOL    HW1 6123   7.508   0.898   4.175  1.2962 -1.5072  2.8103
 1643SOL    HW2 6124   7.572   0.794   4.085  0.7646 -0.7822  1.5702
 1644SOL     OW 6125   7.849   2.605   1.252  0.2538  0.3242  0.0262
 1644SOL    HW1 6126   7.759   2.606   1.221 -0.4543 -0.1100  1.9089
 1644SOL    HW2 6127   7.860   2.688   1.299  0.8071  0.3177 -0.0749
 1645SOL     OW 6128   3.439   7.039   3.459  0.4141 -0.0053 -0.1885
 1645SOL    HW1 6129   3.487   7.014   3.538  0.4065 -0.0327 -0.1927
 1645SOL    HW2 6130   3.362   6.982   3.459  0.8844 -0.6500 -0.7128
 1646SOL     OW 6131   6.488   2.275   0.102  0.9490  0.3630 -0.0980
 1646SOL    HW1 6132   6.440   2.198   0.071  0.0374  0.5378  0.8471
 1646SOL    HW2 6133   6.564   2.280   0.044  1.0257 -1.2411 -0.1768
 1647SOL     OW 6134   5.418   0.865   3.350  0.2701  0.1104 -0.0601
 1647SOL    HW1 6135   5.430   0.927   3.423 -1.4105 -0.0926  0.4284
 1647SOL    HW2 6136   5.362   0.797   3.386 -0.8913  0.1847 -1.6452
 1648SOL     OW 6137   6.211   1.341   2.707  0.2063  0.3361 -0.4281
 1648SOL    HW1 6138   6.215   1.308   2.796 -0.7896  0.5185 -0.3093
 1648SOL    HW2 6139   6.148   1.284   2.663 -1.9886  2.3450 -0.0673
 1649SOL     OW 6140   4.197   2.212   5.079  0.1000 -0.1859  0.1489
 1649SOL    HW1 6141   4.213   2.277   5.147  2.8043 -1.7377  1.1368
 1649SOL    HW2 6142   4.188   2.263   4.998  1.4094  1.4520  0.9835
 1650SOL     OW 6143   4.402   6.501   2.094 -0.0620 -0.6286 -0.3816
 1650SOL    HW1 6144   4.314   6.505   2.130  1.1807 -1.5119  3.2322
 1650SOL    HW2 6145   4.444   6.581   2.125  0.3504 -0.0206 -2.3969
 1651SOL     OW 6146   3.937   3.231   0.381  0.1619  0.1685 -0.1687
 1651SOL    HW1 6147   3.974   3.278   0.306 -0.3068 -0.7202 -0.9826
 1651SOL    HW2 6148   3.854   3.275   0.398  0.3340  0.4608 -0.0888
 1652SOL     OW 6149   2.874   7.176   6.450  0.1767  0.2188 -0.3017
 1652SOL    HW1 6150   2.825   7.097   6.430 -0.2647  0.5165 -0.4010
 1652SOL    HW2 6151   2.953   7.170   6.396 -0.9005  0.9253 -2.0327
 1653SOL     OW 6152   5.771   0.625   6.872  0.3936  0.6000 -0.2448
 1653SOL    HW1 6153   5.773   0.682   6.795  2.7630 -2.1361 -2.4115
 1653SOL    HW2 6154   5.862   0.607   6.892 -0.2262 -1.1105  1.4105
 1654SOL     OW 6155   6.048   1.971   5.267 -0.4198 -0.6525 -0.4523
 1654SOL    HW1 6156   5.966   2.004   5.306 -0.7427 -2.1104  0.1578
 1654SOL    HW2 6157   6.113   2.037   5.291 -1.2216  0.0185 -0.0523
 1655SOL     OW 6158   3.010   5.971   2.253  0.2563  0.5708  0.5155
 1655SOL    HW1 6159   3.047   5.902   2.198 -0.0669  0.7190  0.1044
 1655SOL    HW2 6160   2.925   5.937   2.280  0.8637  0.0257  1.8527
 1656SOL     OW 6161   0.497   1.989   2.880 -0.3940 -0.6857  0.2395
 1656SOL    HW1 6162   0.465   2.032   2.960 -2.0135 -1.3380 -0.0184
 1656SOL    HW2 6163   0.467   1.899   2.888  1.4485 -1.3696 -0.0583
 1657SOL     OW 6164   3.193   5.013   4.549 -0.1952 -0.0805 -0.5596
 1657SOL    HW1 6165   3.103   5.041   4.563 -0.0181  0.1642  0.1272
 1657SOL    HW2 6166   3.188   4.918   4.540 -0.4234 -0.1539  0.3160
 1658SOL     OW 6167   4.059   0.231   7.504 -0.1225  0.6058 -0.4680
 1658SOL    HW1 6168   4.057   0.256   7.597 -0.9666  2.4742 -0.9524
 1658SOL    HW2 6169   4.109   0.149   7.503 -1.3867 -0.2982  1.8296
 1659SOL     OW 6170   4.664   1.075   8.221  0.0474 -0.2190  0.0857
 1659SOL    HW1 6171   4.671   0.986   8.186 -1.0450  0.2364 -1.4129
 1659SOL    HW2 6172   4.586   1.074   8.275  0.1176 -0.2089  0.1867
 1660SOL     OW 6173   1.344   1.324   6.787 -0.1013  0.1071 -0.4050
 1660SOL    HW1 6174   1.337   1.294   6.697 -0.5931  2.2759 -1.1433
 1660SOL    HW2 6175   1.397   1.404   6.782 -1.6216  1.2873  0.9219
 1661SOL     OW 6176   5.511   8.114   0.632 -0.3487 -0.0515  0.1967
 1661SOL    HW1 6177   5.557   8.128   0.715  2.2358 -0.8070 -1.0037
 1661SOL    HW2 6178   5.465   8.031   0.644 -0.6758  0.2540  1.1325
 1662SOL     OW 6179   1.020   0.785   5.873  1.1783 -0.5436  1.1820
 1662SOL    HW1 6180   1.095   0.739   5.836  0.6946 -0.9933  0.7306
 1662SOL    HW2 6181   1.000   0.854   5.809  0.0516 -1.6157  0.3306
 1663SOL     OW 6182   5.259   4.811   5.065  0.3975  0.0169 -0.4455
 1663SOL    HW1 6183   5.228   4.895   5.099  0.4024  0.3297 -1.2026
 1663SOL    HW2 6184   5.324   4.834   4.999  4.4110 -0.6210  2.8662
 1664SOL     OW 6185   1.825   3.476   3.906  0.1231  0.0398  0.0734
 1664SOL    HW1 6186   1.730   3.464   3.904  0.0549  0.5907 -1.5896
 1664SOL    HW2 6187   1.837   3.561   3.947 -0.0939 -0.0415  0.3118
 1665SOL     OW 6188   7.541   0.452   5.046 -0.1520 -0.2700 -0.0905
 1665SOL    HW1 6189   7.542   0.436   4.952 -1.9040 -1.9131  0.1091
 1665SOL    HW2 6190   7.572   0.542   5.055 -2.4565  0.9054 -2.4658
 1666SOL     OW 6191   3.029   0.115   7.127  0.1204 -0.1508 -0.3662
 1666SOL    HW1 6192   3.121   0.098   7.107 -0.3275 -1.9281 -1.0758
 1666SOL    HW2 6193   3.024   0.210   7.136  2.1903 -0.0620  0.5815
 1667SOL     OW 6194   1.816   8.055   3.638 -0.7474  0.0686  0.2448
 1667SOL    HW1 6195   1.850   8.011   3.715 -0.3127  0.0554  0.0488
 1667SOL    HW2 6196   1.750   8.116   3.672 -1.3899 -0.7523  0.5097
 1668SOL     OW 6197   0.621   5.577   0.812  0.1805  0.1888  0.0940
 1668SOL    HW1 6198   0.690   5.519   0.843 -0.8074 -0.4692  1.1347
 1668SOL    HW2 6199   0.668   5.654   0.780  1.5567 -1.3811 -1.8865
 1669SOL     OW 6200   0.427   4.695   6.875  0.2295  0.3227 -0.1144
 1669SOL    HW1 6201   0.450   4.780   6.911 -0.3354  0.5184 -0.2051
 1669SOL    HW2 6202   0.381   4.650   6.945  0.5813  0.0617 -0.0454
 1670SOL     OW 6203   4.933   3.144   5.067  0.1445 -0.0730 -0.2637
 1670SOL    HW1 6204   4.850   3.179   5.098 -0.0486  0.3931 -1.2687
 1670SOL    HW2 6205   4.912   3.100   4.985  0.9726  0.5930 -0.8623
 1671SOL     OW 6206   5.601   8.339   3.510 -0.2045  0.2605  0.0389
 1671SOL    HW1 6207   5.521   8.380   3.542 -0.5449 -1.1796  1.1465
 1671SOL    HW2 6208   5.586   8.327   3.416 -0.3964  1.9013 -0.1733
 1672SOL     OW 6209   3.707   0.922   0.917 -0.0543 -0.1118  0.7091
 1672SOL    HW1 6210   3.786   0.875   0.943 -0.1414 -0.5017  0.2781
 1672SOL    HW2 6211   3.722   1.012   0.946  0.1862 -0.3652  1.3852
 1673SOL     OW 6212   2.374   5.236   1.427 -0.3128 -0.2158 -0.4230
 1673SOL    HW1 6213   2.338   5.163   1.478 -1.2755  0.2566 -0.4096
 1673SOL    HW2 6214   2.361   5.209   1.336  1.1612 -0.9383 -0.4505
 1674SOL     OW 6215   0.539   0.483   0.549  0.3828  0.0938 -0.8987
 1674SOL    HW1 6216   0.488   0.563   0.533  1.8319  0.8854 -1.8101
 1674SOL    HW2 6217   0.630   0.510   0.535  0.9929 -1.4669 -0.1296
 1675SOL     OW 6218   3.686   1.511   4.762  0.7832  0.3934 -0.1271
 1675SOL    HW1 6219   3.676   1.502   4.856  0.2693 -1.0299 -0.2853
 1675SOL    HW2 6220   3.776   1.481   4.744  0.6286 -0.0607 -0.1594
 1676SOL     OW 6221   3.577   2.996   3.144 -0.6730 -0.2556  0.0040
 1676SOL    HW1 6222   3.547   3.027   3.059 -0.8050  0.1328  0.1931
 1676SOL    HW2 6223   3.502   3.006   3.201 -0.5391 -0.3774  0.2026
 1677SOL     OW 6224   2.012   2.368   6.186 -0.0781 -0.4292 -0.1879
 1677SOL    HW1 6225   1.932   2.400   6.145  0.0149  0.9540  0.6245
 1677SOL    HW2 6226   2.070   2.445   6.188  0.8227 -1.1031  0.2840
 1678SOL     OW 6227   4.504   2.364   4.533  0.2546 -0.4347  0.2544
 1678SOL    HW1 6228   4.504   2.412   4.451 -0.6973 -1.5768 -0.4433
 1678SOL    HW2 6229   4.446   2.289   4.518  1.0252 -1.3474  1.5712
 1679SOL     OW 6230   1.673   1.115   5.405 -0.1787 -0.3871  0.4405
 1679SOL    HW1 6231   1.637   1.197   5.372  1.8589  0.8401  1.0971
 1679SOL    HW2 6232   1.686   1.061   5.327 -1.6069 -0.1626  0.0140
 1680SOL     OW 6233   6.539   4.699   3.598 -0.1925 -0.0963  0.4882
 1680SOL    HW1 6234   6.446   4.677   3.612 -0.2783  0.0630  0.1795
 1680SOL    HW2 6235   6.567   4.739   3.681 -0.2008 -0.8105  0.8411
 1681SOL     OW 6236   0.998   4.005   6.773 -0.2283 -0.4687 -0.3701
 1681SOL    HW1 6237   0.910   3.975   6.749  0.0651 -1.6127 -0.0931
 1681SOL    HW2 6238   0.987   4.048   6.857 -0.5201 -0.6733 -0.3007
 1682SOL     OW 6239   4.487   3.638   0.644 -0.2909 -0.1551  0.3448
 1682SOL    HW1 6240   4.413   3.699   0.644 -0.0398  0.1665  1.4527
 1682SOL    HW2 6241   4.455   3.561   0.596 -0.8275  0.5664 -0.4913
 1683SOL     OW 6242   0.793   5.460   3.507  0.0299 -0.5225  0.3166
 1683SOL    HW1 6243   0.850   5.387   3.481 -0.1688 -0.1245 -1.3570
 1683SOL    HW2 6244   0.731   5.468   3.435  0.2194  1.4805  0.3342
 1684SOL     OW 6245   8.013   5.717   4.391 -0.2538  0.4604  0.3576
 1684SOL    HW1 6246   8.047   5.629   4.406 -0.5877  0.3535  0.4794
 1684SOL    HW2 6247   8.079   5.758   4.334  0.1226  0.2801  0.6574
 1685SOL     OW 6248   8.284   6.903   7.689 -0.1156 -0.4853  0.5561
 1685SOL    HW1 6249   8.214   6.938   7.634  0.1110 -1.1589 -0.1885
 1685SOL    HW2 6250   8.297   6.813   7.657  0.7032 -0.5563  1.0509
 1686SOL     OW 6251   4.003   2.297   0.349  0.5605  0.5225  0.1231
 1686SOL    HW1 6252   4.054   2.247   0.413  0.1155 -1.9834 -1.3766
 1686SOL    HW2 6253   4.068   2.337   0.292  0.9283  1.9907  1.5037
 1687SOL     OW 6254   0.611   3.369   6.424  0.0306  0.1363  0.3055
 1687SOL    HW1 6255   0.630   3.279   6.399 -0.0549 -0.4933  2.3927
 1687SOL    HW2 6256   0.632   3.374   6.517 -2.8850  1.4085  1.0131
 1688SOL     OW 6257   8.135   1.160   7.146 -0.0618  0.3438  0.5423
 1688SOL    HW1 6258   8.180   1.088   7.191 -3.5711 -2.2324  0.4404
 1688SOL    HW2 6259   8.124   1.128   7.056 -0.1555  1.8564 -0.0070
 1689SOL     OW 6260   0.512   7.079   1.921  0.3054 -0.3788  0.1067
 1689SOL    HW1 6261   0.437   7.100   1.977  2.1408  0.4188  2.4313
 1689SOL    HW2 6262   0.474   7.060   1.835 -2.4544  1.0229  0.9165
 1690SOL     OW 6263   4.119   8.153   1.435 -0.4063 -0.0229  0.5404
 1690SOL    HW1 6264   4.096   8.091   1.367 -1.2733 -0.6272  1.3571
 1690SOL    HW2 6265   4.035   8.194   1.459  0.0092  0.7543  0.6953
 1691SOL     OW 6266   4.731   7.246   4.988  0.0672  0.0154  0.0131
 1691SOL    HW1 6267   4.720   7.193   5.067 -1.1156 -0.6218 -0.5608
 1691SOL    HW2 6268   4.791   7.195   4.933 -2.3742 -1.6422 -1.2661
 1692SOL     OW 6269   2.147   5.721   2.236 -0.1455 -0.3883  0.0076
 1692SOL    HW1 6270   2.127   5.811   2.261 -2.1022 -0.8141  0.1836
 1692SOL    HW2 6271   2.185   5.728   2.148  0.6330  0.6611  0.4134
 1693SOL     OW 6272   8.115   0.857   3.078 -0.6663  0.3757  0.5332
 1693SOL    HW1 6273   8.077   0.846   2.991  1.4336 -0.5069 -0.3476
 1693SOL    HW2 6274   8.197   0.905   3.063  0.6680 -1.3789  1.7029
 1694SOL     OW 6275   5.489   1.038   4.623 -0.2789 -0.3727 -0.4632
 1694SOL    HW1 6276   5.441   1.080   4.694 -0.3893  1.5493 -1.5940
 1694SOL    HW2 6277   5.461   0.947   4.625 -1.9421  0.1222  0.5942
 1695SOL     OW 6278   5.630   3.359   1.734 -0.2254  0.1331  0.1461
 1695SOL    HW1 6279   5.570   3.404   1.675  2.4312  1.6549 -1.6392
 1695SOL    HW2 6280   5.627   3.268   1.707 -1.8873  0.1231  0.2964
 1696SOL     OW 6281   8.064   7.099   3.630 -0.0049 -0.2924  0.1630
 1696SOL    HW1 6282   8.043   7.023   3.685  0.5795 -0.5288  0.0626
 1696SOL    HW2 6283   7.981   7.146   3.622 -0.2612 -0.6474  0.6455
 1697SOL     OW 6284   1.736   7.175   1.723 -0.5206  0.2302  0.7052
 1697SOL    HW1 6285   1.674   7.179   1.651  0.0232 -1.3716  0.1030
 1697SOL    HW2 6286   1.818   7.209   1.687 -0.2468 -0.5763  0.5451
 1698SOL     OW 6287   5.914   6.881   7.503  0.2640  0.0006  0.2651
 1698SOL    HW1 6288   5.879   6.922   7.424  0.5788 -0.2377 -0.0011
 1698SOL    HW2 6289   5.881   6.935   7.575 -1.6659 -0.8952  0.1223
 1699SOL     OW 6290   1.560   1.757   3.238 -0.1394  0.5085 -0.3517
 1699SOL    HW1 6291   1.565   1.683   3.298 -2.0388  1.1405  0.6788
 1699SOL    HW2 6292   1.473   1.751   3.199  0.9270  0.2971 -2.8819
 1700SOL     OW 6293   7.510   4.235   4.311  0.5111  0.2693 -0.2213
 1700SOL    HW1 6294   7.491   4.271   4.224 -0.7045 -0.9733 -0.4843
 1700SOL    HW2 6295   7.461   4.291   4.371  1.0770  0.9158 -0.3431
 1701SOL     OW 6296   5.185   7.988   5.964 -0.5982  0.0487  0.7596
 1701SOL    HW1 6297   5.096   7.954   5.965 -0.6978 -0.0385 -2.0481
 1701SOL    HW2 6298   5.241   7.911   5.979 -0.9374 -0.8334 -1.9336
 1702SOL     OW 6299   2.494   7.006   3.553  0.0530 -0.1127 -0.3403
 1702SOL    HW1 6300   2.512   7.056   3.633  1.1473  2.2323 -1.9394
 1702SOL    HW2 6301   2.442   7.066   3.499 -0.9107 -1.7556 -1.3126
 1703SOL     OW 6302   0.539   1.757   4.334 -0.3784  0.5037 -0.0214
 1703SOL    HW1 6303   0.503   1.831   4.285 -1.0127 -0.1013 -0.5023
 1703SOL    HW2 6304   0.542   1.685   4.270  0.4374  0.1673  0.3717
 1704SOL     OW 6305   6.232   0.905   2.991  0.7742  0.1769  0.2315
 1704SOL    HW1 6306   6.143   0.877   2.968  0.9806 -0.5496  0.3044
 1704SOL    HW2 6307   6.246   0.983   2.939 -0.0588  0.5312  0.5120
 1705SOL     OW 6308   0.088   6.915   0.212 -0.7736 -0.2901 -0.1992
 1705SOL    HW1 6309   0.113   6.822   0.206 -0.4235 -0.2237  0.2167
 1705SOL    HW2 6310  -0.007   6.915   0.205 -1.0611 -0.9367  2.5724
 1706SOL     OW 6311   3.659   2.255   1.259  0.3959  0.1280  0.5399
 1706SOL    HW1 6312   3.695   2.239   1.347  0.4216  0.8665  0.6647
 1706SOL    HW2 6313   3.598   2.327   1.271  0.0925 -0.0408  0.0200
 1707SOL     OW 6314   0.690   7.135   8.602  0.1528  0.0839 -0.2860
 1707SOL    HW1 6315   0.762   7.074   8.620  0.4028  1.0409  2.3576
 1707SOL    HW2 6316   0.726   7.221   8.620 -1.2100  0.7202 -0.4853
 1708SOL     OW 6317   4.226   3.766   6.018  0.3239  0.2094 -0.3869
 1708SOL    HW1 6318   4.180   3.701   6.072 -0.2567  0.6072 -0.3966
 1708SOL    HW2 6319   4.251   3.719   5.939  0.1415 -0.0700 -0.2782
 1709SOL     OW 6320   5.434   3.690   1.777  0.3791 -0.0199  0.2112
 1709SOL    HW1 6321   5.372   3.722   1.843 -1.4854 -2.5551 -0.1272
 1709SOL    HW2 6322   5.412   3.738   1.698  0.8231  1.1445  0.7777
 1710SOL     OW 6323   7.235   2.881   4.912 -0.0573 -0.3904 -0.2323
 1710SOL    HW1 6324   7.215   2.806   4.968 -1.6161  0.0802 -0.1054
 1710SOL    HW2 6325   7.293   2.846   4.845 -1.3000 -1.8940 -0.5829
 1711SOL     OW 6326   4.401   0.037   4.796 -0.2827 -0.3992 -0.4395
 1711SOL    HW1 6327   4.315   0.035   4.753 -0.9185 -0.6116  0.8111
 1711SOL    HW2 6328   4.414   0.130   4.817 -1.0531 -0.5867  0.9838
 1712SOL     OW 6329   7.163   7.409   4.401  0.6896  0.3585 -0.2815
 1712SOL    HW1 6330   7.102   7.441   4.335  0.3671 -0.0752 -0.1997
 1712SOL    HW2 6331   7.108   7.387   4.476  1.1882  2.0475  0.6079
 1713SOL     OW 6332   0.828   3.987   5.232  0.2138  0.2079 -0.5851
 1713SOL    HW1 6333   0.905   4.043   5.225 -0.3165  0.9019 -0.9697
 1713SOL    HW2 6334   0.829   3.934   5.152  0.9599 -0.6707 -0.0157
 1714SOL     OW 6335   0.042   0.030   8.010 -0.2897  0.1542 -0.0920
 1714SOL    HW1 6336   0.063  -0.047   8.064  2.3268  0.7678 -0.1246
 1714SOL    HW2 6337   0.116   0.089   8.022 -1.6638  2.1908 -1.0370
 1715SOL     OW 6338   2.123   1.467   7.648 -0.2893  0.6270 -0.1427
 1715SOL    HW1 6339   2.147   1.505   7.732  0.1505 -0.7581  0.3713
 1715SOL    HW2 6340   2.205   1.433   7.612 -1.1088 -3.4247  1.2662
 1716SOL     OW 6341   2.228   1.861   3.901  0.4031 -0.4711  0.2755
 1716SOL    HW1 6342   2.300   1.908   3.859 -0.2129 -1.0444 -1.5533
 1716SOL    HW2 6343   2.224   1.778   3.854 -1.2971 -0.5404  0.4817
 1717SOL     OW 6344   4.232   3.539   4.183  0.7039  0.3536  0.1963
 1717SOL    HW1 6345   4.256   3.461   4.133  0.7009  0.0467  0.6650
 1717SOL    HW2 6346   4.278   3.529   4.267  1.5365  1.3581 -0.1148
 1718SOL     OW 6347   6.843   8.580   8.234 -0.2020 -0.0329 -0.7298
 1718SOL    HW1 6348   6.920   8.636   8.247 -0.0940 -0.2612 -0.3746
 1718SOL    HW2 6349   6.775   8.640   8.202 -0.3699  0.4933  0.5733
 1719SOL     OW 6350   6.425   5.346   4.734 -0.5497 -0.1136 -0.7978
 1719SOL    HW1 6351   6.386   5.341   4.821 -0.4264 -0.4408 -0.7632
 1719SOL    HW2 6352   6.405   5.435   4.705 -0.0497  0.2046 -0.1842
 1720SOL     OW 6353   1.298   5.636   6.845  0.1534  0.1605  0.1382
 1720SOL    HW1 6354   1.224   5.578   6.863 -1.3848  1.6732 -0.9490
 1720SOL    HW2 6355   1.322   5.672   6.931  0.4097 -1.2018  0.6590
 1721SOL     OW 6356   5.799   4.484   4.499 -0.2671  0.4358  1.2579
 1721SOL    HW1 6357   5.774   4.575   4.485 -1.6894  0.4296  3.2933
 1721SOL    HW2 6358   5.758   4.436   4.427  0.7355  1.3950  0.0072
 1722SOL     OW 6359   4.616   5.089   4.285  0.2473 -0.4570  0.1571
 1722SOL    HW1 6360   4.600   5.074   4.192 -1.2413  0.4413  0.2258
 1722SOL    HW2 6361   4.528   5.091   4.324  0.7230  1.1158  1.2506
 1723SOL     OW 6362   1.972   4.736   6.190  0.6101 -0.8677  0.1188
 1723SOL    HW1 6363   1.918   4.769   6.119  0.5918 -0.7360  0.1936
 1723SOL    HW2 6364   1.913   4.682   6.243  0.4206 -0.3027  0.4945
 1724SOL     OW 6365   1.664   2.343   5.585 -0.5427  0.0464 -0.4638
 1724SOL    HW1 6366   1.674   2.418   5.527 -0.9491 -1.0437 -2.0056
 1724SOL    HW2 6367   1.582   2.302   5.558  1.2509 -2.8760 -2.0424
 1725SOL     OW 6368   6.212   4.332   7.983  0.8325  0.2316  0.1583
 1725SOL    HW1 6369   6.124   4.364   7.963  1.3246  0.6683 -1.4704
 1725SOL    HW2 6370   6.212   4.320   8.078 -1.1186 -0.2288  0.1434
 1726SOL     OW 6371   1.276   7.757   6.970  0.2872 -0.5871 -0.0903
 1726SOL    HW1 6372   1.196   7.765   7.020  1.5197  0.8054  1.7974
 1726SOL    HW2 6373   1.254   7.792   6.883 -0.8208  1.1106  0.8176
 1727SOL     OW 6374   3.474   3.824   6.159 -0.0168  0.7502  0.0728
 1727SOL    HW1 6375   3.504   3.783   6.079 -0.1692  1.8359 -0.5599
 1727SOL    HW2 6376   3.385   3.791   6.172 -0.2751  1.1492 -0.6315
 1728SOL     OW 6377   3.615   8.225   7.389 -0.9262 -0.1382  0.5719
 1728SOL    HW1 6378   3.548   8.196   7.327  0.9817 -0.3148 -1.5631
 1728SOL    HW2 6379   3.615   8.320   7.382  0.3122 -0.2160 -0.9419
 1729SOL     OW 6380   0.596   8.540   3.176 -0.5365  0.1217 -0.2731
 1729SOL    HW1 6381   0.543   8.491   3.240  0.4132 -1.7663 -0.8577
 1729SOL    HW2 6382   0.656   8.592   3.230  0.8916 -2.1510  0.4636
 1730SOL     OW 6383   7.292   0.031   5.516 -0.5047  0.0198 -0.1287
 1730SOL    HW1 6384   7.348  -0.044   5.492 -0.8645 -0.6567  1.0649
 1730SOL    HW2 6385   7.228  -0.005   5.577 -1.1605  1.1618 -0.1103
 1731SOL     OW 6386   1.888   7.358   0.227  0.3052  0.2014  0.1164
 1731SOL    HW1 6387   1.882   7.266   0.255  0.3359 -0.2125 -1.1472
 1731SOL    HW2 6388   1.976   7.366   0.191  0.9910  1.2621  1.9222
 1732SOL     OW 6389   7.718   1.029   3.552 -0.0921 -0.4342 -0.3247
 1732SOL    HW1 6390   7.722   0.940   3.517  1.9573 -0.5517  0.0870
 1732SOL    HW2 6391   7.808   1.060   3.549 -0.2856  0.6017  2.1199
 1733SOL     OW 6392   6.783   4.644   6.920 -0.0687 -0.1965 -0.2839
 1733SOL    HW1 6393   6.773   4.702   6.996 -1.1703 -2.7922  1.7348
 1733SOL    HW2 6394   6.694   4.619   6.897  0.3865 -2.6210  0.2846
 1734SOL     OW 6395   4.658   5.117   5.655 -0.3426 -0.0530 -0.2162
 1734SOL    HW1 6396   4.630   5.106   5.746  1.0275 -0.3662  0.1879
 1734SOL    HW2 6397   4.696   5.032   5.632 -0.5398  0.0767 -1.0269
 1735SOL     OW 6398   1.634   1.373   5.008  0.4448  0.1727  0.3762
 1735SOL    HW1 6399   1.696   1.323   5.060  0.4156 -1.1123 -0.7571
 1735SOL    HW2 6400   1.548   1.353   5.046  0.6474  1.6382  1.6935
 1736SOL     OW 6401   0.522   5.824   5.128 -0.1522  0.6422 -0.3523
 1736SOL    HW1 6402   0.543   5.731   5.140  0.8962  0.7334 -1.3487
 1736SOL    HW2 6403   0.600   5.870   5.156  0.3469  1.0836 -2.3237
 1737SOL     OW 6404   2.548   7.012   2.232 -0.0060  0.5057 -0.3773
 1737SOL    HW1 6405   2.583   7.100   2.217 -2.4532  1.5622 -0.4888
 1737SOL    HW2 6406   2.578   6.961   2.157  2.3798  0.8723  0.2347
 1738SOL     OW 6407   2.827   0.483   2.434  0.4862  0.2162  0.9108
 1738SOL    HW1 6408   2.820   0.484   2.530 -1.7840  0.5658  0.7815
 1738SOL    HW2 6409   2.810   0.392   2.410 -0.3862  0.4081  0.7749
 1739SOL     OW 6410   4.364   5.565   4.597 -0.6735  0.2215 -0.4998
 1739SOL    HW1 6411   4.297   5.634   4.590 -0.6762  0.2135 -0.5488
 1739SOL    HW2 6412   4.395   5.552   4.507  0.8938  1.7138 -0.2271
 1740SOL     OW 6413   3.666   4.674   2.217  0.5334 -0.5287  0.3207
 1740SOL    HW1 6414   3.633   4.587   2.194  0.1214 -0.6512  1.3150
 1740SOL    HW2 6415   3.624   4.694   2.301  1.6709  0.0468  0.7788
 1741SOL     OW 6416   3.565   1.769   1.630 -0.2245 -0.6133  0.4142
 1741SOL    HW1 6417   3.585   1.726   1.713 -1.0651 -2.0791 -0.1048
 1741SOL    HW2 6418   3.502   1.711   1.587 -1.0451  0.9165 -0.5499
 1742SOL     OW 6419   6.411   0.573   1.344  0.0985 -0.0536 -0.0549
 1742SOL    HW1 6420   6.315   0.578   1.345 -0.0792 -2.3131 -0.3598
 1742SOL    HW2 6421   6.438   0.642   1.283 -1.6372 -2.0038 -3.2980
 1743SOL     OW 6422   7.437   6.588   0.521 -0.2305  0.4937 -0.4428
 1743SOL    HW1 6423   7.401   6.593   0.433  0.8457  0.9736 -0.8817
 1743SOL    HW2 6424   7.522   6.632   0.514 -0.4592  1.2098  1.0065
 1744SOL     OW 6425   3.031   5.581   0.327  0.6088  0.0196 -0.0998
 1744SOL    HW1 6426   3.016   5.554   0.237 -0.8089 -2.0717  0.6921
 1744SOL    HW2 6427   3.094   5.518   0.361 -0.4117 -0.4980  0.9145
 1745SOL     OW 6428   6.630   1.879   5.815 -0.2840 -0.3624 -0.5141
 1745SOL    HW1 6429   6.619   1.895   5.721  1.8311  0.0803 -0.7424
 1745SOL    HW2 6430   6.598   1.789   5.827  1.0556 -1.1103 -2.0512
 1746SOL     OW 6431   1.007   1.176   0.204 -0.5917  0.2953  0.5234
 1746SOL    HW1 6432   1.083   1.118   0.210 -0.0121  1.1375  1.7413
 1746SOL    HW2 6433   0.933   1.122   0.233 -0.2992 -0.2264  0.3140
 1747SOL     OW 6434   4.852   5.677   3.447  0.6721  0.0748 -0.5669
 1747SOL    HW1 6435   4.801   5.708   3.373 -0.6528  0.5690  0.5098
 1747SOL    HW2 6436   4.866   5.754   3.502 -0.8467 -0.7546  1.0951
 1748SOL     OW 6437   5.855   2.307   5.238  0.3374 -0.6208 -0.6245
 1748SOL    HW1 6438   5.945   2.339   5.241  0.5661 -1.3107  0.1340
 1748SOL    HW2 6439   5.801   2.386   5.237  0.8757 -0.1721  1.6127
 1749SOL     OW 6440   4.277   6.950   3.135 -0.5426 -0.5551 -0.3999
 1749SOL    HW1 6441   4.284   7.005   3.213  2.3673 -2.3616  0.7811
 1749SOL    HW2 6442   4.189   6.914   3.139 -1.4001  1.4797  0.5126
 1750SOL     OW 6443   7.012   0.127   2.669  0.1081 -0.3866 -0.0038
 1750SOL    HW1 6444   7.045   0.084   2.590 -1.1859 -1.3558 -0.0354
 1750SOL    HW2 6445   7.015   0.060   2.737  0.6270  0.2696  0.6467
 1751SOL     OW 6446   2.481   1.112   8.402  0.4587  0.8454 -0.1887
 1751SOL    HW1 6447   2.559   1.151   8.362 -0.4598  2.4369 -0.4858
 1751SOL    HW2 6448   2.504   1.105   8.495  1.2332  0.5737 -0.3926
 1752SOL     OW 6449   6.787   2.251   1.652  0.2212 -0.0459  0.1268
 1752SOL    HW1 6450   6.874   2.288   1.633  1.4233 -1.7597  1.9681
 1752SOL    HW2 6451   6.773   2.186   1.583 -1.1575  2.4384 -2.1225
 1753SOL     OW 6452   4.959   2.752   8.131  0.4130  0.5426  0.1645
 1753SOL    HW1 6453   4.899   2.685   8.099  0.5681  0.7140 -0.5067
 1753SOL    HW2 6454   5.046   2.720   8.108  0.4728  1.1138 -0.4557
 1754SOL     OW 6455   0.858   4.729   3.163 -0.1172 -0.9980  0.3223
 1754SOL    HW1 6456   0.821   4.654   3.210 -1.0835 -2.2571 -2.2541
 1754SOL    HW2 6457   0.784   4.788   3.149 -0.1333 -1.2338 -0.6594
 1755SOL     OW 6458   8.188   5.227   7.826 -0.2250  0.1579  0.2331
 1755SOL    HW1 6459   8.172   5.178   7.746 -0.5620  2.7459 -1.4065
 1755SOL    HW2 6460   8.209   5.316   7.796  1.5756  0.7851  2.9518
 1756SOL     OW 6461   5.349   5.692   0.028 -0.2534 -0.3468  0.2157
 1756SOL    HW1 6462   5.272   5.749   0.023  0.2697  0.2929 -1.0050
 1756SOL    HW2 6463   5.418   5.740  -0.017  0.8826 -0.9138  1.2759
 1757SOL     OW 6464   0.306   3.876   1.031 -0.0659 -0.3568 -0.3830
 1757SOL    HW1 6465   0.295   3.918   1.117  0.9442  0.4161 -0.6149
 1757SOL    HW2 6466   0.378   3.814   1.043 -0.7491 -1.1621 -0.3608
 1758SOL     OW 6467   0.329   7.188   5.927 -1.1173  0.4780  0.2145
 1758SOL    HW1 6468   0.410   7.164   5.972 -1.0960  0.8223  0.3688
 1758SOL    HW2 6469   0.308   7.113   5.873  0.9053  1.4539 -2.1204
 1759SOL     OW 6470   4.769   2.447   6.773 -0.2466  0.0052 -0.3576
 1759SOL    HW1 6471   4.749   2.540   6.772 -0.9667 -0.0942  1.5558
 1759SOL    HW2 6472   4.698   2.407   6.822  0.3300 -1.4932 -0.6862
 1760SOL     OW 6473   6.273   0.526   5.136 -0.2632  0.2069  0.1429
 1760SOL    HW1 6474   6.178   0.518   5.140 -0.2768  0.2169 -0.1435
 1760SOL    HW2 6475   6.303   0.441   5.105 -0.0017 -0.6193  2.4666
 1761SOL     OW 6476   6.239   8.513   4.998 -0.6711 -0.7891  0.3151
 1761SOL    HW1 6477   6.161   8.461   5.016 -0.1884 -1.2156  1.2637
 1761SOL    HW2 6478   6.304   8.482   5.061  0.1856 -0.2562 -0.2736
 1762SOL     OW 6479   3.494   0.570   7.533  0.6213 -0.4270  0.2969
 1762SOL    HW1 6480   3.490   0.591   7.626 -2.2443  1.2557 -0.0946
 1762SOL    HW2 6481   3.432   0.498   7.522 -0.5807  0.7030 -0.5572
 1763SOL     OW 6482   8.310   6.449   6.390  0.1040 -0.0320 -0.3289
 1763SOL    HW1 6483   8.355   6.368   6.415 -1.7901 -1.1244 -0.2438
 1763SOL    HW2 6484   8.324   6.508   6.463  2.2125  0.0539 -0.7422
 1764SOL     OW 6485   7.201   7.968   8.527 -0.8184  0.4220  0.5098
 1764SOL    HW1 6486   7.210   8.063   8.538 -1.5619  0.4634  0.7922
 1764SOL    HW2 6487   7.291   7.938   8.511 -0.1795  0.8851  2.7973
 1765SOL     OW 6488   3.160   0.492   7.004 -0.0229 -0.7060  0.4637
 1765SOL    HW1 6489   3.194   0.576   7.036  0.8638 -1.0710  0.4774
 1765SOL    HW2 6490   3.201   0.426   7.060 -0.7810 -1.1513  0.5090
 1766SOL     OW 6491   5.864   3.230   4.941  0.0924 -0.3873  0.0475
 1766SOL    HW1 6492   5.891   3.138   4.936 -0.7864 -0.8643  2.4752
 1766SOL    HW2 6493   5.816   3.236   5.024 -0.5049  2.1177 -0.4004
 1767SOL     OW 6494   4.985   4.558   3.012 -0.7719  0.3627  0.4904
 1767SOL    HW1 6495   5.062   4.613   3.027  0.2720 -0.7803 -0.4815
 1767SOL    HW2 6496   4.920   4.617   2.975  0.0541  1.1076  0.2025
 1768SOL     OW 6497   8.010   4.530   1.826  0.0380 -0.0785 -0.2650
 1768SOL    HW1 6498   7.976   4.451   1.784  0.5232 -1.8799  2.4825
 1768SOL    HW2 6499   7.963   4.602   1.783 -1.7628 -1.9606 -1.6379
 1769SOL     OW 6500   2.436   6.607   0.364  0.5248  0.1650  0.0126
 1769SOL    HW1 6501   2.450   6.642   0.276 -0.6441  2.1639  0.5532
 1769SOL    HW2 6502   2.513   6.635   0.414  0.6237  0.0882 -0.0991
 1770SOL     OW 6503   1.597   0.580   0.984 -0.1754  0.0588 -0.0486
 1770SOL    HW1 6504   1.596   0.633   1.063 -0.3159  1.4181 -0.9338
 1770SOL    HW2 6505   1.513   0.534   0.985 -0.4639  0.5884  0.2594
 1771SOL     OW 6506   7.352   3.216   7.954 -0.1999 -0.0452  0.3809
 1771SOL    HW1 6507   7.429   3.273   7.956  1.2640 -1.4835 -3.7635
 1771SOL    HW2 6508   7.290   3.262   7.898 -0.9918 -0.4289  0.9312
 1772SOL     OW 6509   1.108   2.060   5.353  0.2573  0.1702  0.4923
 1772SOL    HW1 6510   1.018   2.050   5.321  0.4914  2.1414 -0.9675
 1772SOL    HW2 6511   1.157   1.994   5.304 -0.0897  0.3287 -0.0803
 1773SOL     OW 6512   7.192   6.286   8.551 -0.4040 -0.0522  0.5398
 1773SOL    HW1 6513   7.267   6.227   8.554  0.2254  0.7648  1.6963
 1773SOL    HW2 6514   7.131   6.245   8.489  1.3739 -0.2646 -1.1503
 1774SOL     OW 6515   7.966   2.798   6.022 -0.2320  0.0747  0.6006
 1774SOL    HW1 6516   8.004   2.873   5.976  0.4020 -1.8833 -2.3116
 1774SOL    HW2 6517   7.879   2.787   5.984 -0.3232 -0.6796  1.0064
 1775SOL     OW 6518   7.498   3.654   8.256  0.7817  0.3137  0.3002
 1775SOL    HW1 6519   7.555   3.594   8.210 -0.2367 -1.3929  1.1511
 1775SOL    HW2 6520   7.411   3.637   8.220  0.1176 -0.4072  2.1354
 1776SOL     OW 6521   8.441   4.771   5.653  0.0319  0.5795  0.4587
 1776SOL    HW1 6522   8.411   4.764   5.744 -0.7920  1.7481  0.3089
 1776SOL    HW2 6523   8.421   4.686   5.614 -2.7367  1.1186  0.5076
 1777SOL     OW 6524   7.305   4.384   4.707 -0.0427 -0.2430 -0.3551
 1777SOL    HW1 6525   7.262   4.325   4.646 -0.2858 -1.6272  1.0908
 1777SOL    HW2 6526   7.306   4.469   4.662 -0.3370 -1.1654 -2.1781
 1778SOL     OW 6527   7.886   7.856   8.498 -0.0064 -0.0564 -0.2624
 1778SOL    HW1 6528   7.875   7.929   8.558  0.1192  0.6400 -1.0712
 1778SOL    HW2 6529   7.796   7.834   8.470  0.0390  0.5894 -0.9458
 1779SOL     OW 6530   0.795   4.671   1.292 -0.0293  0.1678  0.2205
 1779SOL    HW1 6531   0.803   4.757   1.332  0.1249  0.9513 -1.4367
 1779SOL    HW2 6532   0.852   4.674   1.215 -0.1852 -1.3393  0.0098
 1780SOL     OW 6533   3.848   3.412   3.906  0.6325  0.5806 -0.1555
 1780SOL    HW1 6534   3.908   3.358   3.957  1.3272  0.5446 -0.9833
 1780SOL    HW2 6535   3.821   3.482   3.966  0.3229 -0.2426  0.6833
 1781SOL     OW 6536   3.379   6.407   5.320 -0.0357 -0.1400  0.4552
 1781SOL    HW1 6537   3.463   6.364   5.304 -1.0607 -2.6488  1.1577
 1781SOL    HW2 6538   3.357   6.448   5.237  1.0085 -1.1116 -0.3477
 1782SOL     OW 6539   1.217   5.934   4.070 -0.2288  0.2272  0.1596
 1782SOL    HW1 6540   1.224   5.886   4.153 -2.9291 -0.6009  0.0014
 1782SOL    HW2 6541   1.235   6.025   4.094  1.0174 -0.2518  1.2224
 1783SOL     OW 6542   5.281   7.001   7.021  0.4049 -0.2610  0.1120
 1783SOL    HW1 6543   5.253   7.081   7.066 -0.7272 -1.9006  2.4920
 1783SOL    HW2 6544   5.209   6.980   6.961  0.9532  0.7373 -0.9461
 1784SOL     OW 6545   7.909   8.521   1.105 -0.2642 -0.0713 -0.4728
 1784SOL    HW1 6546   7.821   8.519   1.142 -0.0014  1.6602  0.3498
 1784SOL    HW2 6547   7.945   8.434   1.124 -1.1221 -0.1482  0.9453
 1785SOL     OW 6548   4.071   5.140   7.099 -0.5329 -0.3317 -0.2598
 1785SOL    HW1 6549   4.041   5.102   7.181  2.2461 -0.7107  0.6766
 1785SOL    HW2 6550   4.167   5.133   7.103 -0.2999 -1.3175 -3.9773
 1786SOL     OW 6551   2.467   0.820   2.484 -0.5497 -0.4769  0.0423
 1786SOL    HW1 6552   2.513   0.881   2.541  1.4081 -2.0347  0.2181
 1786SOL    HW2 6553   2.381   0.811   2.524 -0.1990  0.6249  1.1231
 1787SOL     OW 6554   6.202   4.841   4.239  0.8268 -0.3752  0.1273
 1787SOL    HW1 6555   6.247   4.769   4.194 -0.1247 -0.9374  0.0559
 1787SOL    HW2 6556   6.201   4.814   4.331 -0.4677 -0.9916 -0.0379
 1788SOL     OW 6557   6.523   5.043   6.401  0.5762 -0.2920 -0.5606
 1788SOL    HW1 6558   6.596   4.987   6.423  1.6262  1.8891  2.0928
 1788SOL    HW2 6559   6.464   5.038   6.476 -0.8422 -0.1915 -1.6160
 1789SOL     OW 6560   2.877   1.679   1.443 -0.4967  0.0108 -0.3872
 1789SOL    HW1 6561   2.871   1.587   1.472  0.2669 -0.1060 -0.5640
 1789SOL    HW2 6562   2.874   1.729   1.524  0.2556 -0.2463 -0.1822
 1790SOL     OW 6563   4.724   3.051   0.915  0.6898  0.1963  0.4252
 1790SOL    HW1 6564   4.773   2.975   0.949  0.6651  0.4051  0.9415
 1790SOL    HW2 6565   4.632   3.026   0.924  0.6736 -0.6289 -1.5342
 1791SOL     OW 6566   5.981   0.006   3.408 -0.3740 -0.6007  0.1861
 1791SOL    HW1 6567   6.014  -0.067   3.461 -1.0156 -0.5860  0.6121
 1791SOL    HW2 6568   6.053   0.025   3.347  2.0577  1.9342  3.5036
 1792SOL     OW 6569   0.651   8.188   1.671 -0.6472  0.4009  0.6362
 1792SOL    HW1 6570   0.718   8.245   1.711 -0.8321  1.8583 -0.9801
 1792SOL    HW2 6571   0.692   8.102   1.667  1.7904  1.5043 -1.5376
 1793SOL     OW 6572   1.321   7.682   2.760  0.5766  0.3390 -0.1419
 1793SOL    HW1 6573   1.408   7.643   2.772  0.3010 -0.3627 -0.3519
 1793SOL    HW2 6574   1.338   7.776   2.750  1.4578  0.0289 -1.8170
 1794SOL     OW 6575   3.703   5.742   2.846  0.1204  0.0129 -0.0911
 1794SOL    HW1 6576   3.688   5.804   2.774 -0.0506 -0.6687 -0.6525
 1794SOL    HW2 6577   3.615   5.716   2.873  0.2057 -1.7057 -1.3761
 1795SOL     OW 6578   2.207   1.715   5.414  0.1391 -0.1704  0.0992
 1795SOL    HW1 6579   2.179   1.737   5.325 -1.7889  0.2485  0.7548
 1795SOL    HW2 6580   2.245   1.628   5.407  1.6646  0.5736 -1.4138
 1796SOL     OW 6581   0.063   5.446   0.173  0.4138  0.2857  0.1696
 1796SOL    HW1 6582   0.066   5.483   0.262 -0.9902  1.4903 -0.2541
 1796SOL    HW2 6583  -0.014   5.390   0.173  0.5210  0.1399 -0.2357
 1797SOL     OW 6584   5.089   1.212   4.799  0.2021 -0.1545  0.5166
 1797SOL    HW1 6585   5.149   1.137   4.801 -0.8739 -1.0406  0.7701
 1797SOL    HW2 6586   5.003   1.174   4.819 -0.5891  0.9430 -0.6484
 1798SOL     OW 6587   0.358   4.128   0.176 -0.3886 -0.3652  0.4946
 1798SOL    HW1 6588   0.426   4.190   0.202 -1.2961  1.7281 -1.7066
 1798SOL    HW2 6589   0.279   4.182   0.167 -1.4824 -2.0386 -0.4873
 1799SOL     OW 6590   4.001   6.254   4.703  0.3944  0.8363  0.4446
 1799SOL    HW1 6591   4.046   6.337   4.685  0.5163  0.6613 -0.0803
 1799SOL    HW2 6592   3.909   6.273   4.688  0.3930  0.9500  0.5968
 1800SOL     OW 6593   2.672   6.999   7.541  0.4977 -0.0973  0.8647
 1800SOL    HW1 6594   2.593   6.956   7.506 -0.0754  2.0785 -0.7311
 1800SOL    HW2 6595   2.640   7.055   7.611  0.6645  0.4365  0.5235
 1801SOL     OW 6596   5.016   2.444   5.483  0.1373  0.2910 -0.5375
 1801SOL    HW1 6597   5.106   2.413   5.490  0.4629  1.0434 -1.2031
 1801SOL    HW2 6598   5.016   2.528   5.529 -0.0188  0.6688 -1.2095
 1802SOL     OW 6599   6.457   2.155   0.796  0.0109  0.4857 -0.5051
 1802SOL    HW1 6600   6.526   2.189   0.853  1.0664 -2.5807  0.2921
 1802SOL    HW2 6601   6.471   2.060   0.798 -1.6990  0.0610 -3.6589
 1803SOL     OW 6602   2.606   0.279   7.368  0.2215  0.2625  0.6723
 1803SOL    HW1 6603   2.612   0.332   7.447  0.5565  0.6025  0.4254
 1803SOL    HW2 6604   2.620   0.189   7.397 -1.8951  0.0844  1.3453
 1804SOL     OW 6605   5.548   3.082   0.550 -0.0599  0.1184  0.6192
 1804SOL    HW1 6606   5.469   3.119   0.511  1.4205  1.0801 -1.6682
 1804SOL    HW2 6607   5.583   3.152   0.604  0.8239  0.8111 -0.8211
 1805SOL     OW 6608   2.679   0.023   7.435  0.0995 -0.3588  0.2699
 1805SOL    HW1 6609   2.636  -0.062   7.434  0.4894 -0.5614 -0.6107
 1805SOL    HW2 6610   2.719   0.029   7.522 -1.8225 -0.0791  1.1729
 1806SOL     OW 6611   0.229   5.285   8.118  0.8344  0.5054 -0.0340
 1806SOL    HW1 6612   0.159   5.266   8.180  0.5217  0.2246 -0.4699
 1806SOL    HW2 6613   0.305   5.238   8.152  1.1789  1.8372  1.1454
 1807SOL     OW 6614   0.841   1.501   4.822  0.3094 -0.0065  1.0895
 1807SOL    HW1 6615   0.766   1.467   4.773  0.5937  0.2940  0.4273
 1807SOL    HW2 6616   0.820   1.594   4.834  1.6858  0.7028 -1.3261
 1808SOL     OW 6617   2.410   4.511   2.475  0.8274  0.1854 -0.2987
 1808SOL    HW1 6618   2.434   4.513   2.568  1.2102  1.3675 -0.4034
 1808SOL    HW2 6619   2.413   4.603   2.448  3.0768 -0.3120 -2.0748
 1809SOL     OW 6620   0.926   1.421   3.641  0.2037  0.3657  0.2222
 1809SOL    HW1 6621   0.837   1.386   3.641  0.1638  0.4692 -0.3044
 1809SOL    HW2 6622   0.940   1.448   3.732  0.0297 -0.4769  0.5069
 1810SOL     OW 6623   6.973   7.046   8.431  0.5817  0.0141  0.9072
 1810SOL    HW1 6624   7.047   7.105   8.417 -0.3061  0.9487 -0.0138
 1810SOL    HW2 6625   6.897   7.105   8.438 -0.3841 -1.0303 -0.4501
 1811SOL     OW 6626   3.175   6.695   2.003 -0.1679  0.4959 -0.8302
 1811SOL    HW1 6627   3.246   6.733   2.055  0.5204 -2.0071  0.1913
 1811SOL    HW2 6628   3.202   6.707   1.912  2.4003 -1.7350 -0.4624
 1812SOL     OW 6629   1.720   0.076   0.219 -0.5531 -0.7032  0.1667
 1812SOL    HW1 6630   1.662   0.007   0.186 -0.0695 -0.8552 -0.3777
 1812SOL    HW2 6631   1.784   0.028   0.273 -0.1422 -0.6995 -0.3129
 1813SOL     OW 6632   2.232   8.102   5.302  0.0237 -0.0517  0.2585
 1813SOL    HW1 6633   2.180   8.176   5.270  0.1827 -0.0678 -0.0329
 1813SOL    HW2 6634   2.220   8.104   5.397 -1.0981 -0.4873  0.1415
 1814SOL     OW 6635   6.347   0.852   3.652 -0.0297 -0.4103 -0.4188
 1814SOL    HW1 6636   6.396   0.919   3.700 -0.9770 -0.2184  0.3097
 1814SOL    HW2 6637   6.276   0.827   3.712 -1.0190 -0.4507 -1.5771
 1815SOL     OW 6638   6.920   4.537   4.648  0.0865  0.1012  0.5264
 1815SOL    HW1 6639   6.905   4.471   4.581 -2.8995  0.5641  0.6179
 1815SOL    HW2 6640   6.925   4.488   4.730  2.6164 -0.3568  0.1744
 1816SOL     OW 6641   6.343   4.402   1.817 -0.0122 -0.0533 -0.5283
 1816SOL    HW1 6642   6.332   4.497   1.815  0.3070  0.0788  1.6427
 1816SOL    HW2 6643   6.422   4.388   1.870 -0.0324 -1.5379 -0.8424
 1817SOL     OW 6644   3.676   1.591   1.815 -0.3610  0.4677  0.4469
 1817SOL    HW1 6645   3.726   1.512   1.793 -0.5395  0.6716 -0.7759
 1817SOL    HW2 6646   3.652   1.579   1.907  2.4826  0.6606  1.3024
 1818SOL     OW 6647   6.439   5.407   0.240 -0.1051 -0.1943 -0.1271
 1818SOL    HW1 6648   6.484   5.433   0.321  0.5475  0.1763 -0.5958
 1818SOL    HW2 6649   6.389   5.484   0.215  1.4052  0.4752 -1.2271
 1819SOL     OW 6650   4.484   3.959   6.039 -0.1294 -0.5980  0.1309
 1819SOL    HW1 6651   4.492   4.054   6.029  0.6047 -0.2067  3.2984
 1819SOL    HW2 6652   4.397   3.939   6.005  0.4190  0.8314 -2.3706
 1820SOL     OW 6653   4.654   7.023   1.056 -0.3911  0.2604 -0.5394
 1820SOL    HW1 6654   4.747   7.039   1.066 -0.2668 -0.9824  0.7735
 1820SOL    HW2 6655   4.612   7.105   1.082  0.2744 -0.1807  2.2442
 1821SOL     OW 6656   6.371   1.828   4.364  0.3647 -0.2041 -0.1604
 1821SOL    HW1 6657   6.330   1.750   4.326  1.0201 -0.4276 -0.4232
 1821SOL    HW2 6658   6.373   1.810   4.458 -0.9639  0.2063 -0.0427
 1822SOL     OW 6659   1.980   0.576   1.345  0.2935 -0.1471  0.4327
 1822SOL    HW1 6660   1.936   0.556   1.263 -0.4610 -0.7190  0.9687
 1822SOL    HW2 6661   1.947   0.662   1.370 -0.9913 -0.8129  1.1219
 1823SOL     OW 6662   5.194   2.295   7.028 -0.3377  0.0070  0.1131
 1823SOL    HW1 6663   5.100   2.278   7.021 -0.2152 -0.0623 -1.5101
 1823SOL    HW2 6664   5.204   2.334   7.115 -1.8620  0.0023  0.3179
 1824SOL     OW 6665   0.424   0.562   2.072  0.2885 -0.2841  0.9721
 1824SOL    HW1 6666   0.343   0.579   2.120 -0.1327  2.8558 -0.5881
 1824SOL    HW2 6667   0.486   0.625   2.107  0.9936 -0.3084 -0.1788
 1825SOL     OW 6668   5.064   7.843   6.596 -0.7038  0.4668  0.0965
 1825SOL    HW1 6669   4.993   7.907   6.602 -0.9050  0.1956  0.7531
 1825SOL    HW2 6670   5.112   7.853   6.679  0.1660  0.8117 -0.4432
 1826SOL     OW 6671   0.336   3.440   1.557  0.5701  0.2280  0.6677
 1826SOL    HW1 6672   0.351   3.526   1.517 -2.0547  0.0088 -1.0185
 1826SOL    HW2 6673   0.405   3.385   1.519 -0.7878  0.4362 -2.4475
 1827SOL     OW 6674   0.679   5.504   3.245 -0.0962 -0.0558 -0.0092
 1827SOL    HW1 6675   0.710   5.496   3.154  0.5826 -0.6698  0.2727
 1827SOL    HW2 6676   0.654   5.596   3.253 -0.7500 -0.1273 -1.0065
 1828SOL     OW 6677   5.971   4.541   2.402 -0.7611  0.2746 -0.4166
 1828SOL    HW1 6678   6.008   4.500   2.481  0.8059  0.7507 -0.8602
 1828SOL    HW2 6679   5.925   4.471   2.358 -0.9058 -0.2147  0.4848
 1829SOL     OW 6680   2.592   8.377   7.545  0.0781  0.1540 -0.1862
 1829SOL    HW1 6681   2.585   8.285   7.570  0.0163 -0.1364 -1.2131
 1829SOL    HW2 6682   2.508   8.415   7.572  0.5563  0.2048  1.3242
 1830SOL     OW 6683   4.050   2.412   1.692  0.3075  0.1751  0.6877
 1830SOL    HW1 6684   4.083   2.365   1.769 -2.8029 -2.2827  0.7333
 1830SOL    HW2 6685   3.969   2.453   1.722  0.6914  1.9432 -0.5415
 1831SOL     OW 6686   2.503   4.130   5.740  0.7069  0.1276  0.0091
 1831SOL    HW1 6687   2.416   4.101   5.713  0.7839  1.4515 -1.8476
 1831SOL    HW2 6688   2.499   4.134   5.835 -1.7595  1.5523 -0.0715
 1832SOL     OW 6689   2.780   1.030   1.046 -0.8638 -0.1141 -1.3450
 1832SOL    HW1 6690   2.715   1.098   1.028  1.0208  2.9312  2.0815
 1832SOL    HW2 6691   2.771   1.011   1.139  0.9635 -2.1061 -1.4727
 1833SOL     OW 6692   5.829   3.642   6.445  0.2139  0.6265 -0.3310
 1833SOL    HW1 6693   5.760   3.637   6.378 -0.2910 -0.7696  0.2531
 1833SOL    HW2 6694   5.850   3.550   6.464  1.5026  1.0226  0.2597
 1834SOL     OW 6695   3.212   3.832   5.545 -0.1500  0.9141 -0.0857
 1834SOL    HW1 6696   3.130   3.818   5.591 -0.1714  1.5230  0.0767
 1834SOL    HW2 6697   3.248   3.911   5.585  1.5217 -0.4558  1.2999
 1835SOL     OW 6698   6.756   5.770   2.810  0.0410  0.0007 -0.0837
 1835SOL    HW1 6699   6.775   5.760   2.716  1.8881  1.5729  0.0418
 1835SOL    HW2 6700   6.684   5.833   2.813  1.0350  1.2003 -0.4592
 1836SOL     OW 6701   5.506   2.086   5.964 -0.6146  0.4563 -0.4148
 1836SOL    HW1 6702   5.481   2.168   6.007 -1.1402 -0.9081  2.0547
 1836SOL    HW2 6703   5.599   2.098   5.942 -0.3651  1.3008  0.9790
 1837SOL     OW 6704   2.125   6.206   5.507 -0.0503 -0.2624 -0.0676
 1837SOL    HW1 6705   2.069   6.200   5.430  1.2932  1.6655 -1.2906
 1837SOL    HW2 6706   2.142   6.300   5.517  1.0791 -0.6012  1.6437
 1838SOL     OW 6707   8.071   8.057   5.071 -0.2248  0.6255 -0.1680
 1838SOL    HW1 6708   8.141   8.007   5.114 -0.3629 -1.4122 -2.1156
 1838SOL    HW2 6709   8.013   8.082   5.142  1.7948  1.2701  1.3480
 1839SOL     OW 6710   4.983   4.384   0.513 -0.3372  0.2689 -0.4613
 1839SOL    HW1 6711   5.061   4.439   0.521  0.0069 -0.4563  1.6838
 1839SOL    HW2 6712   4.999   4.331   0.434  1.9084 -0.6606  0.5284
 1840SOL     OW 6713   7.369   2.441   1.472 -0.0104  0.3279  0.1945
 1840SOL    HW1 6714   7.379   2.505   1.543 -2.5879  1.4831 -0.3759
 1840SOL    HW2 6715   7.405   2.485   1.395 -0.6354  0.6185  0.0593
 1841SOL     OW 6716   8.518   8.121   5.025 -0.0325  0.0956  0.0108
 1841SOL    HW1 6717   8.594   8.069   4.998  1.2965  0.9884  1.8613
 1841SOL    HW2 6718   8.455   8.057   5.057 -0.5077 -0.7388 -2.3439
 1842SOL     OW 6719   6.238   4.453   5.658 -0.0580  0.3633  0.3284
 1842SOL    HW1 6720   6.176   4.521   5.686  1.8222  2.6181 -0.6209
 1842SOL    HW2 6721   6.319   4.476   5.703  0.5698 -1.5191  0.2296
 1843SOL     OW 6722   1.266   7.653   0.088 -0.2763 -0.0101  0.3807
 1843SOL    HW1 6723   1.334   7.603   0.042 -0.0007  0.7794 -0.0925
 1843SOL    HW2 6724   1.258   7.610   0.173 -0.3307 -1.1048 -0.1564
 1844SOL     OW 6725   1.415   8.356   2.411  0.3217 -0.3671 -0.3939
 1844SOL    HW1 6726   1.328   8.318   2.395  0.6236 -1.4658  0.5051
 1844SOL    HW2 6727   1.397   8.443   2.447 -0.3831 -0.2142 -1.0777
 1845SOL     OW 6728   6.090   0.723   3.996  0.0404 -0.7529 -0.5803
 1845SOL    HW1 6729   6.027   0.695   4.062 -0.1534  0.5921 -0.1757
 1845SOL    HW2 6730   6.047   0.794   3.948  1.1938  0.1425 -0.3461
 1846SOL     OW 6731   1.081   5.303   1.760  0.5484  0.4528 -0.2655
 1846SOL    HW1 6732   1.067   5.321   1.853  0.1586 -0.8714 -0.0436
 1846SOL    HW2 6733   1.146   5.367   1.733  1.4534  0.1915  1.1718
 1847SOL     OW 6734   5.858   3.999   6.265 -0.3039 -0.4686 -0.3047
 1847SOL    HW1 6735   5.765   3.979   6.258 -0.2490 -0.5816 -0.7027
 1847SOL    HW2 6736   5.874   4.006   6.360 -0.6649 -0.6734 -0.2280
 1848SOL     OW 6737   6.409   3.251   0.749 -0.1002 -0.2576 -0.3708
 1848SOL    HW1 6738   6.419   3.340   0.717  2.2559 -1.0738 -2.1606
 1848SOL    HW2 6739   6.421   3.258   0.844  0.2487  1.3030 -0.5138
 1849SOL     OW 6740   0.459   7.363   7.253 -0.0355  0.0971 -0.2775
 1849SOL    HW1 6741   0.546   7.370   7.213  0.0110  0.6941 -0.0831
 1849SOL    HW2 6742   0.407   7.317   7.188  0.4033 -0.1942 -0.4311
 1850SOL     OW 6743   0.419   4.252   6.863 -0.3354 -0.8207  0.0450
 1850SOL    HW1 6744   0.330   4.241   6.896 -0.9854 -1.2190 -1.7454
 1850SOL    HW2 6745   0.426   4.189   6.792  0.6484  0.6890 -1.2632
 1851SOL     OW 6746   7.312   3.424   5.378  0.4340 -1.1309 -0.2858
 1851SOL    HW1 6747   7.362   3.396   5.301  1.9114 -1.4345  0.7498
 1851SOL    HW2 6748   7.359   3.500   5.411 -0.9442 -0.1948 -0.4167
 1852SOL     OW 6749   0.142   7.987   5.023 -0.2796 -0.6211 -0.5833
 1852SOL    HW1 6750   0.182   7.906   5.056  0.8596  0.0973 -0.1538
 1852SOL    HW2 6751   0.205   8.021   4.961 -0.7195 -0.0128 -0.7033
 1853SOL     OW 6752   7.151   5.532   7.983 -0.7807  0.5978  0.1363
 1853SOL    HW1 6753   7.193   5.589   8.047  2.5057 -1.0160 -0.4071
 1853SOL    HW2 6754   7.180   5.444   8.006 -2.7989 -0.5078 -1.1979
 1854SOL     OW 6755   7.497   7.410   0.793 -0.1978 -0.1039 -0.4681
 1854SOL    HW1 6756   7.489   7.327   0.840 -0.8980 -0.7775 -1.7367
 1854SOL    HW2 6757   7.587   7.410   0.760 -0.1090 -0.2187 -0.2298
 1855SOL     OW 6758   7.553   7.073   2.265 -0.0424 -0.0308  0.1697
 1855SOL    HW1 6759   7.464   7.047   2.288  0.1150 -0.1260  0.6759
 1855SOL    HW2 6760   7.598   6.991   2.244 -0.3137  0.0929 -0.9617
 1856SOL     OW 6761   2.378   0.391   1.509  0.0436  0.1304  0.3644
 1856SOL    HW1 6762   2.392   0.389   1.414 -0.3260  1.1426  0.2724
 1856SOL    HW2 6763   2.464   0.411   1.546  0.0699  0.3176  0.2030
 1857SOL     OW 6764   0.469   4.817   1.908  0.4188  0.1047 -0.0382
 1857SOL    HW1 6765   0.398   4.829   1.845 -0.2591  1.3579  0.9164
 1857SOL    HW2 6766   0.528   4.754   1.866  0.5816  1.6939 -2.4241
 1858SOL     OW 6767   4.900   7.188   4.429  0.5315  0.6136  0.1146
 1858SOL    HW1 6768   4.879   7.274   4.395 -0.9735  0.5076  0.7104
 1858SOL    HW2 6769   4.825   7.164   4.483 -0.0238 -1.9256 -1.6209
 1859SOL     OW 6770   5.436   1.896   7.718 -0.3243  0.2787  0.1423
 1859SOL    HW1 6771   5.446   1.991   7.722  2.1090  0.1533 -1.1266
 1859SOL    HW2 6772   5.448   1.867   7.808  2.8691  0.9741  0.0625
 1860SOL     OW 6773   1.336   4.852   5.683  0.0342 -0.0687 -0.2082
 1860SOL    HW1 6774   1.242   4.854   5.701  0.2134  1.5055  0.8250
 1860SOL    HW2 6775   1.343   4.813   5.596 -1.4814 -1.2110  0.1410
 1861SOL     OW 6776   3.947   2.032   7.340  0.4396  0.9468 -0.6428
 1861SOL    HW1 6777   3.981   1.956   7.388 -0.6400  0.9225  0.1208
 1861SOL    HW2 6778   3.897   2.081   7.405  1.6737  2.7020 -0.9614
 1862SOL     OW 6779   2.773   4.517   0.143  0.0498 -0.2877  0.3939
 1862SOL    HW1 6780   2.720   4.491   0.219  0.4069  1.4750  1.3008
 1862SOL    HW2 6781   2.710   4.555   0.082 -0.0442 -0.3922  0.4239
 1863SOL     OW 6782   7.552   3.058   1.112 -0.0185 -0.1180 -0.4146
 1863SOL    HW1 6783   7.458   3.043   1.111 -0.0857  0.2847 -0.2627
 1863SOL    HW2 6784   7.564   3.131   1.173  0.5739 -1.4556  1.1578
 1864SOL     OW 6785   5.934   2.388   1.718  0.6168  0.2801  0.1967
 1864SOL    HW1 6786   5.985   2.374   1.798  1.2451  0.2564 -0.2044
 1864SOL    HW2 6787   5.917   2.300   1.684  1.5572  0.3289 -0.4406
 1865SOL     OW 6788   6.226   4.878   5.829 -0.7810 -0.1823  0.4650
 1865SOL    HW1 6789   6.230   4.959   5.880 -1.0124 -0.0022  0.1952
 1865SOL    HW2 6790   6.151   4.831   5.865 -0.2708 -0.5628  1.0453
 1866SOL     OW 6791   5.116   1.813   0.852  0.0770 -0.1091 -0.5421
 1866SOL    HW1 6792   5.182   1.812   0.921 -0.2087  0.6705 -0.2547
 1866SOL    HW2 6793   5.158   1.767   0.779 -0.0989 -2.1619  0.5684
 1867SOL     OW 6794   6.312   7.536   4.764 -0.3356  0.2174 -0.0406
 1867SOL    HW1 6795   6.345   7.457   4.721 -0.6105 -0.5385  1.1152
 1867SOL    HW2 6796   6.299   7.598   4.692 -0.4885 -0.9081 -1.0146
 1868SOL     OW 6797   1.515   0.595   7.859 -0.1482  0.6390  0.3858
 1868SOL    HW1 6798   1.473   0.516   7.894 -0.3244  0.7074  0.3264
 1868SOL    HW2 6799   1.504   0.660   7.928  1.4389  0.1584  1.1522
 1869SOL     OW 6800   6.072   3.306   5.271  0.2521 -0.0063 -0.6785
 1869SOL    HW1 6801   6.033   3.271   5.191 -1.1189 -1.5489  0.5748
 1869SOL    HW2 6802   6.119   3.232   5.309 -1.3090 -0.1171  1.2166
 1870SOL     OW 6803   4.103   2.041   6.913 -0.0142 -0.0102 -0.4806
 1870SOL    HW1 6804   4.193   2.039   6.945  0.0174  0.4429 -0.5294
 1870SOL    HW2 6805   4.061   1.965   6.953  0.3567 -0.1490 -0.3557
 1871SOL     OW 6806   2.271   6.358   5.973 -0.1185 -0.4304 -0.0603
 1871SOL    HW1 6807   2.208   6.427   5.954 -0.0947  0.5368  2.7788
 1871SOL    HW2 6808   2.223   6.297   6.028  0.7635 -0.9442  0.1482
 1872SOL     OW 6809   4.984   4.282   8.394  0.0679 -0.3941 -0.0862
 1872SOL    HW1 6810   4.905   4.231   8.414  1.2270 -2.2170  0.0008
 1872SOL    HW2 6811   4.961   4.330   8.314 -1.0198 -1.0987 -0.2216
 1873SOL     OW 6812   2.063   4.351   5.259  0.4287  0.1846  0.5482
 1873SOL    HW1 6813   2.081   4.395   5.342 -0.9883  0.6655  0.6289
 1873SOL    HW2 6814   2.106   4.406   5.193 -2.3377  2.5635  0.4985
 1874SOL     OW 6815   0.504   7.038   0.942  0.2943 -0.2802  0.6285
 1874SOL    HW1 6816   0.483   7.095   0.868  1.9119 -0.9575 -0.3934
 1874SOL    HW2 6817   0.494   6.949   0.908 -0.1841 -0.6138  1.6029
 1875SOL     OW 6818   6.788   5.448   4.689  0.4135  0.0556  0.5369
 1875SOL    HW1 6819   6.709   5.503   4.690  1.6992  2.0444  0.0663
 1875SOL    HW2 6820   6.798   5.422   4.597 -1.3383 -2.8848  1.0548
 1876SOL     OW 6821   4.939   6.783   1.493  0.2881  0.3593  0.5384
 1876SOL    HW1 6822   4.846   6.787   1.515  0.0771  0.3314 -0.2987
 1876SOL    HW2 6823   4.940   6.764   1.399  1.1133  1.6320  0.2640
 1877SOL     OW 6824   2.492   6.284   5.724 -0.4671  0.2553  0.7077
 1877SOL    HW1 6825   2.470   6.285   5.631  2.7473 -1.1173 -0.2243
 1877SOL    HW2 6826   2.423   6.233   5.765 -1.9284  0.8604 -0.9077
 1878SOL     OW 6827   3.371   2.890   6.576  0.0060  0.3220  0.0324
 1878SOL    HW1 6828   3.309   2.919   6.509  0.0693  0.5436  0.0684
 1878SOL    HW2 6829   3.321   2.828   6.629 -0.1317  0.3648 -0.0460
 1879SOL     OW 6830   6.248   6.568   4.746  0.7248  0.6092  0.1642
 1879SOL    HW1 6831   6.279   6.631   4.681 -0.6622  1.0739 -0.0789
 1879SOL    HW2 6832   6.163   6.539   4.713  0.3715  0.2337  1.3450
 1880SOL     OW 6833   7.796   3.573   6.951 -0.5059 -0.2887  0.0365
 1880SOL    HW1 6834   7.746   3.500   6.914 -0.4876 -0.0949 -0.3756
 1880SOL    HW2 6835   7.831   3.619   6.875  0.8931 -0.8199  0.3237
 1881SOL     OW 6836   0.929   0.523   3.084 -0.6044  0.4435 -0.3949
 1881SOL    HW1 6837   0.854   0.566   3.040 -0.6289 -0.0301 -0.8278
 1881SOL    HW2 6838   0.990   0.595   3.102 -1.4020  0.9277  0.4808
 1882SOL     OW 6839   0.254   1.782   6.911  0.4889  0.1247 -0.3397
 1882SOL    HW1 6840   0.254   1.862   6.859  0.2053  1.6917  1.9505
 1882SOL    HW2 6841   0.172   1.738   6.887  0.9833  0.0951 -2.1461
 1883SOL     OW 6842   5.353   5.481   6.488 -0.0806  0.0794  0.1985
 1883SOL    HW1 6843   5.301   5.480   6.568  0.5642  0.2829  0.6297
 1883SOL    HW2 6844   5.291   5.503   6.419 -0.3089  1.7572  0.8939
 1884SOL     OW 6845   6.929   6.199   2.738 -0.3508 -0.3091 -0.9716
 1884SOL    HW1 6846   6.900   6.285   2.706  0.9701 -0.2475 -2.1037
 1884SOL    HW2 6847   6.874   6.137   2.690 -0.8474 -0.1221 -0.6530
 1885SOL     OW 6848   3.541   2.432   3.398  0.2120  0.1205  0.5822
 1885SOL    HW1 6849   3.613   2.372   3.421 -0.0305 -0.1085  0.7599
 1885SOL    HW2 6850   3.564   2.514   3.441  0.7250  0.2643  0.0457
 1886SOL     OW 6851   7.104   0.207   4.471  0.1575 -1.0341  0.4132
 1886SOL    HW1 6852   7.011   0.197   4.492  0.0524 -1.8525 -0.3639
 1886SOL    HW2 6853   7.143   0.124   4.499  0.9522 -0.1375  2.1391
 1887SOL     OW 6854   7.562   7.798   0.740  0.1153  0.3552 -0.5717
 1887SOL    HW1 6855   7.640   7.811   0.685 -0.3559  0.7899 -1.1425
 1887SOL    HW2 6856   7.488   7.807   0.680 -0.4045  0.7025  0.1104
 1888SOL     OW 6857   0.341   0.932   6.100 -0.7323 -0.2272  0.5639
 1888SOL    HW1 6858   0.275   0.862   6.101 -1.6292  0.5742  2.8608
 1888SOL    HW2 6859   0.315   0.991   6.170  0.1016  2.3606 -1.1725
 1889SOL     OW 6860   7.800   3.324   4.289 -0.1110  0.3531  0.1078
 1889SOL    HW1 6861   7.785   3.418   4.278 -1.1334  0.0468 -1.6433
 1889SOL    HW2 6862   7.895   3.315   4.294 -0.0164  1.7361  3.8201
 1890SOL     OW 6863   8.126   2.801   4.302  0.0584 -0.2359 -0.1678
 1890SOL    HW1 6864   8.073   2.721   4.294  0.1814 -0.3924  0.5459
 1890SOL    HW2 6865   8.216   2.771   4.285 -0.1086  0.1035 -1.7942
 1891SOL     OW 6866   5.229   5.482   0.135 -0.5024  0.8244  0.0378
 1891SOL    HW1 6867   5.142   5.510   0.163 -0.4482  0.7012  0.3359
 1891SOL    HW2 6868   5.265   5.558   0.091 -1.3009  0.4273 -1.3467
 1892SOL     OW 6869   1.782   7.486   1.573 -0.4748 -0.5747  0.2232
 1892SOL    HW1 6870   1.839   7.442   1.510  0.6387 -0.2215  0.9542
 1892SOL    HW2 6871   1.832   7.487   1.654 -0.5508  1.7961  0.3088
 1893SOL     OW 6872   0.997   3.918   6.093 -0.2387 -0.0424 -0.1273
 1893SOL    HW1 6873   0.956   3.912   6.007 -1.2466 -0.9979  0.4032
 1893SOL    HW2 6874   1.051   3.840   6.099 -0.0876  0.0764  0.0766
 1894SOL     OW 6875   3.044   0.393   3.035 -0.0655 -0.7287  0.2748
 1894SOL    HW1 6876   2.997   0.335   3.095 -0.6344  0.4185  0.9721
 1894SOL    HW2 6877   3.130   0.404   3.075 -0.6499  0.5240  1.2339
 1895SOL     OW 6878   1.790   8.391   1.434 -0.3675 -0.1332 -0.1646
 1895SOL    HW1 6879   1.820   8.316   1.485  0.2378  0.7111  0.7362
 1895SOL    HW2 6880   1.764   8.456   1.499  0.2428  0.8995 -0.9278
 1896SOL     OW 6881   6.136   4.161   7.739 -0.3896 -0.2149  0.2557
 1896SOL    HW1 6882   6.169   4.201   7.659  0.5622  0.4945  0.9768
 1896SOL    HW2 6883   6.136   4.232   7.803 -1.4268 -0.6967  0.8072
 1897SOL     OW 6884   5.503   6.974   7.798  0.2887  0.1345  0.1907
 1897SOL    HW1 6885   5.519   7.031   7.873  0.9044  1.1768 -0.7118
 1897SOL    HW2 6886   5.570   6.905   7.806 -0.0708 -0.1426  0.9419
 1898SOL     OW 6887   8.138   1.347   4.967 -0.3080  0.8488  0.8508
 1898SOL    HW1 6888   8.050   1.371   4.936  0.1849 -1.3689 -2.9271
 1898SOL    HW2 6889   8.193   1.420   4.939 -0.5683  1.0095  0.7470
 1899SOL     OW 6890   3.564   2.719   0.626 -0.0954 -0.1756 -0.7218
 1899SOL    HW1 6891   3.657   2.737   0.609 -0.0689 -0.7238 -1.1945
 1899SOL    HW2 6892   3.548   2.757   0.713  0.5970 -0.1658 -0.5888
 1900SOL     OW 6893   3.717   2.213   5.360 -0.2292 -0.1704  0.2217
 1900SOL    HW1 6894   3.648   2.228   5.295  0.1209  0.3978 -0.0331
 1900SOL    HW2 6895   3.795   2.253   5.321  0.1864 -0.5908  0.6131
 1901SOL     OW 6896   5.361   0.262   1.668  0.1089 -0.1113 -0.3082
 1901SOL    HW1 6897   5.336   0.209   1.593 -0.2742  1.3557 -1.2479
 1901SOL    HW2 6898   5.278   0.292   1.705  0.3173 -0.3284  0.3493
 1902SOL     OW 6899   7.574   6.417   7.507 -0.0269 -0.0079  0.1394
 1902SOL    HW1 6900   7.498   6.387   7.558 -0.4370  2.1447  0.8803
 1902SOL    HW2 6901   7.629   6.463   7.570  0.8544  0.3016 -0.8214
 1903SOL     OW 6902   6.337   7.056   0.494  0.5465  0.0665 -0.0535
 1903SOL    HW1 6903   6.372   7.143   0.478  2.0246 -0.7230 -1.4180
 1903SOL    HW2 6904   6.376   7.029   0.577  0.5857  0.4507  0.0534
 1904SOL     OW 6905   4.015   2.210   1.400  0.1477 -0.5245 -0.0360
 1904SOL    HW1 6906   3.980   2.184   1.315  1.6414 -0.0389 -0.8159
 1904SOL    HW2 6907   4.081   2.144   1.420 -0.9629 -1.2938  1.3216
 1905SOL     OW 6908   5.018   7.755   3.838 -0.0239  0.5757  0.2437
 1905SOL    HW1 6909   5.038   7.799   3.921 -1.1646  2.9187 -0.6401
 1905SOL    HW2 6910   4.930   7.718   3.852 -0.5877  1.7218 -0.1683
 1906SOL     OW 6911   3.152   6.847   5.136  0.3119 -0.1524 -0.0547
 1906SOL    HW1 6912   3.240   6.838   5.173 -0.1180 -0.2539  0.9758
 1906SOL    HW2 6913   3.110   6.763   5.154  0.3740 -0.5424 -1.6021
 1907SOL     OW 6914   0.105   4.077   4.843 -0.1134  0.5414 -0.3209
 1907SOL    HW1 6915   0.195   4.077   4.874  0.1724  1.5299 -1.1132
 1907SOL    HW2 6916   0.101   4.148   4.779 -1.7999  1.4183  0.6803
 1908SOL     OW 6917   8.278   4.541   0.623 -0.0449  0.3199 -0.0101
 1908SOL    HW1 6918   8.259   4.448   0.634  2.0989  0.0858  2.5165
 1908SOL    HW2 6919   8.316   4.548   0.536  0.3077 -1.2653  0.0055
 1909SOL     OW 6920   5.292   8.550   5.214  0.1671 -0.5064 -0.3970
 1909SOL    HW1 6921   5.261   8.571   5.302 -1.2612 -0.4549 -0.8916
 1909SOL    HW2 6922   5.264   8.459   5.200  0.7421 -0.6490 -0.6498
 1910SOL     OW 6923   7.930   0.666   4.154  0.3969 -0.4240 -0.0299
 1910SOL    HW1 6924   7.985   0.678   4.076  1.8667  1.3153  1.1896
 1910SOL    HW2 6925   7.934   0.572   4.172  1.8221 -0.5489 -0.8192
 1911SOL     OW 6926   6.362   5.286   8.173  0.3038  0.0326  0.4667
 1911SOL    HW1 6927   6.394   5.197   8.191 -1.0499 -0.4828  0.4426
 1911SOL    HW2 6928   6.321   5.313   8.255 -0.1471  0.2460  0.1716
 1912SOL     OW 6929   3.870   3.899   7.202 -0.7832 -0.1260 -0.2902
 1912SOL    HW1 6930   3.799   3.962   7.192 -0.8424 -0.0891  0.3652
 1912SOL    HW2 6931   3.859   3.840   7.127 -0.1420  1.1941 -1.4824
 1913SOL     OW 6932   8.572   0.929   5.083  0.3967  0.0905 -0.3329
 1913SOL    HW1 6933   8.612   0.865   5.024  2.3085  0.1647  0.8146
 1913SOL    HW2 6934   8.584   1.013   5.038  0.6699  0.0056 -0.4184
 1914SOL     OW 6935   4.059   8.124   4.274 -0.8192 -0.2010 -0.2211
 1914SOL    HW1 6936   4.139   8.166   4.241 -0.7785  0.9786  1.2646
 1914SOL    HW2 6937   4.085   8.087   4.358 -2.0613  1.1864  0.8360
 1915SOL     OW 6938   1.975   0.654   2.678  0.2986 -0.8409  0.0250
 1915SOL    HW1 6939   1.997   0.563   2.697  1.2388 -0.6327 -0.0206
 1915SOL    HW2 6940   1.953   0.692   2.763  1.6326 -0.6709  0.3244
 1916SOL     OW 6941   5.354   7.972   6.641  0.1764 -0.8958  0.1511
 1916SOL    HW1 6942   5.417   7.918   6.594 -0.5370 -1.7521  0.1405
 1916SOL    HW2 6943   5.349   7.933   6.728 -0.4413 -0.9399  0.1051
 1917SOL     OW 6944   8.474   1.929   6.598  0.0764  0.2214  0.1618
 1917SOL    HW1 6945   8.395   1.890   6.560  1.1264  0.2470 -2.2304
 1917SOL    HW2 6946   8.442   2.004   6.648 -1.4664 -0.2011 -0.1267
 1918SOL     OW 6947   5.238   5.938   0.075 -0.4178 -0.2988 -0.0371
 1918SOL    HW1 6948   5.162   5.993   0.089  0.7538  0.5761  4.3131
 1918SOL    HW2 6949   5.312   5.998   0.075  0.6489 -1.5255  1.6156
 1919SOL     OW 6950   1.627   6.887   5.514 -0.3972  0.1863  0.0268
 1919SOL    HW1 6951   1.588   6.900   5.600 -0.9817 -0.2194 -0.1712
 1919SOL    HW2 6952   1.631   6.791   5.504 -2.3408  0.2042 -1.2856
 1920SOL     OW 6953   2.856   4.407   7.227  1.0496 -0.1777 -0.5817
 1920SOL    HW1 6954   2.913   4.351   7.279 -0.0854 -2.4746 -1.6238
 1920SOL    HW2 6955   2.915   4.461   7.175  2.2396 -1.0386 -0.1656
 1921SOL     OW 6956   6.221   6.251   2.998 -0.2325 -0.4607 -0.0666
 1921SOL    HW1 6957   6.139   6.248   2.948 -0.9594 -0.6825  1.1100
 1921SOL    HW2 6958   6.245   6.344   3.000 -1.1950 -0.2119  0.7298
 1922SOL     OW 6959   1.973   6.238   2.557  0.0975  0.3232 -0.1225
 1922SOL    HW1 6960   1.881   6.246   2.584  0.2530  0.0925  0.5007
 1922SOL    HW2 6961   1.974   6.271   2.467 -0.3149  1.8952  0.4010
 1923SOL     OW 6962   7.419   1.131   6.792 -0.1984 -0.0255 -0.1671
 1923SOL    HW1 6963   7.457   1.055   6.835  0.6663  0.3206 -0.2969
 1923SOL    HW2 6964   7.486   1.159   6.730  0.6490  2.3801  1.6565
 1924SOL     OW 6965   0.890   7.904   2.366  0.0363  0.1156 -0.5411
 1924SOL    HW1 6966   0.815   7.926   2.420  0.7362  1.3915 -0.0430
 1924SOL    HW2 6967   0.941   7.843   2.420  0.0802  0.3720 -0.2916
 1925SOL     OW 6968   4.957   7.406   7.119 -0.4570 -0.3578  0.1278
 1925SOL    HW1 6969   4.893   7.363   7.062 -1.2158 -1.8198  1.9655
 1925SOL    HW2 6970   5.041   7.367   7.095 -0.9826 -2.1532  1.0189
 1926SOL     OW 6971   7.839   3.510   5.247  0.0105 -0.1960 -0.4012
 1926SOL    HW1 6972   7.806   3.503   5.158 -1.3635 -0.8514  0.1374
 1926SOL    HW2 6973   7.828   3.422   5.284 -1.3701  0.5417  1.0438
 1927SOL     OW 6974   2.070   7.315   7.567  0.4282  0.3240  0.2503
 1927SOL    HW1 6975   1.998   7.319   7.630  0.5184  2.0027  0.2986
 1927SOL    HW2 6976   2.027   7.315   7.481  0.3300 -1.1723  0.2725
 1928SOL     OW 6977   1.196   5.688   1.443  0.2243 -0.9121  0.1181
 1928SOL    HW1 6978   1.210   5.782   1.456  0.2722 -0.6388 -1.7268
 1928SOL    HW2 6979   1.245   5.647   1.514  2.3378  0.3734 -0.5066
 1929SOL     OW 6980   4.290   1.348   2.075 -0.5039 -0.3295  0.0170
 1929SOL    HW1 6981   4.345   1.420   2.106 -0.0757 -1.7312  2.7758
 1929SOL    HW2 6982   4.345   1.301   2.012 -1.3149  2.4532 -3.0879
 1930SOL     OW 6983   6.660   5.095   8.227  0.3717  0.6306  0.6076
 1930SOL    HW1 6984   6.733   5.151   8.254  0.4548  1.1830 -0.6740
 1930SOL    HW2 6985   6.596   5.102   8.297  0.2213  2.6447  0.3205
 1931SOL     OW 6986   4.311   8.016   7.975  0.5454  0.4802 -0.1105
 1931SOL    HW1 6987   4.334   8.009   7.883  1.8345  2.1779  0.0367
 1931SOL    HW2 6988   4.313   8.110   7.994  0.3972  0.1701  1.6623
 1932SOL     OW 6989   6.399   5.970   6.017  0.2682 -0.6072  0.3359
 1932SOL    HW1 6990   6.474   5.942   6.070  0.3347 -2.5225 -0.6665
 1932SOL    HW2 6991   6.435   6.035   5.957  0.5773  0.2456  1.4123
 1933SOL     OW 6992   3.955   7.877   2.683 -0.0835  0.2161 -0.1768
 1933SOL    HW1 6993   4.046   7.868   2.654  0.3559  2.6658  0.1524
 1933SOL    HW2 6994   3.905   7.884   2.601  0.3824  1.3390 -0.3853
 1934SOL     OW 6995   0.620   5.127   6.147  0.6067 -0.0332 -0.4777
 1934SOL    HW1 6996   0.707   5.133   6.187  0.3040  2.2277 -0.0537
 1934SOL    HW2 6997   0.626   5.182   6.069 -0.4049  0.0091 -0.5336
 1935SOL     OW 6998   6.155   2.407   1.875  0.1370  0.0914  0.2418
 1935SOL    HW1 6999   6.247   2.419   1.898  0.2408 -0.2916  0.0339
 1935SOL    HW2 7000   6.109   2.476   1.923  0.5875  0.5882 -0.0317
 1936SOL     OW 7001   2.396   7.359   5.001  1.3136  0.8289  0.5308
 1936SOL    HW1 7002   2.338   7.354   5.077  0.5540  2.5397  0.1149
 1936SOL    HW2 7003   2.384   7.448   4.968  1.2699 -0.0114 -1.8807
 1937SOL     OW 7004   2.709   0.783   4.140  0.4262 -0.7975 -0.4532
 1937SOL    HW1 7005   2.784   0.809   4.194 -0.5934  0.0826  0.6000
 1937SOL    HW2 7006   2.648   0.744   4.203 -1.1800  1.0700 -0.7743
 1938SOL     OW 7007   0.292   6.464   6.730  0.1771  0.3773 -0.0032
 1938SOL    HW1 7008   0.351   6.475   6.804 -1.1061  3.5153  0.7165
 1938SOL    HW2 7009   0.223   6.406   6.762 -0.2427  1.5155  1.2458
 1939SOL     OW 7010   7.184   3.249   2.437 -0.0229  0.2121 -0.1944
 1939SOL    HW1 7011   7.247   3.312   2.472 -1.2446  0.5788  1.4223
 1939SOL    HW2 7012   7.172   3.185   2.507  0.4163 -1.2976 -1.4231
 1940SOL     OW 7013   1.903   3.489   4.305 -0.6539  0.1220  0.3442
 1940SOL    HW1 7014   1.925   3.572   4.262 -0.1508  0.8200  1.8985
 1940SOL    HW2 7015   1.972   3.476   4.370 -1.3637 -0.9374  0.9187
 1941SOL     OW 7016   5.615   5.482   8.091  0.4745  0.2920 -0.1860
 1941SOL    HW1 7017   5.571   5.400   8.072  0.5811 -0.4672  2.4473
 1941SOL    HW2 7018   5.677   5.493   8.019  0.9636 -2.3173 -0.2667
 1942SOL     OW 7019   7.702   3.520   0.653  0.4304 -0.7558 -0.0555
 1942SOL    HW1 7020   7.735   3.553   0.737 -1.2693  0.0440  0.3414
 1942SOL    HW2 7021   7.697   3.598   0.597 -0.7059 -0.8596 -0.1133
 1943SOL     OW 7022   8.009   4.405   5.621  0.0203 -0.0649  0.2749
 1943SOL    HW1 7023   7.959   4.385   5.542 -0.2885  0.5473  0.3080
 1943SOL    HW2 7024   8.089   4.353   5.612 -1.1028 -2.0096  0.7780
 1944SOL     OW 7025   5.715   0.756   7.476 -0.1783 -0.3432  0.7830
 1944SOL    HW1 7026   5.691   0.848   7.466  1.3395 -0.0338 -0.3628
 1944SOL    HW2 7027   5.658   0.709   7.415 -0.2599 -0.0392  0.6235
 1945SOL     OW 7028   4.404   0.692   4.971 -0.0749  0.0253  0.6036
 1945SOL    HW1 7029   4.320   0.739   4.973 -2.3831 -3.6554 -0.4180
 1945SOL    HW2 7030   4.451   0.730   4.896 -0.9724  1.8605  0.9109
 1946SOL     OW 7031   7.547   6.569   4.678  0.7521 -0.5489  0.2707
 1946SOL    HW1 7032   7.458   6.537   4.686  1.0184 -1.0235  1.6198
 1946SOL    HW2 7033   7.601   6.490   4.679  1.3225 -0.1757  2.0736
 1947SOL     OW 7034   8.431   1.790   0.539 -0.0927  0.1265  0.0589
 1947SOL    HW1 7035   8.413   1.719   0.601 -1.4755 -1.9792 -2.5207
 1947SOL    HW2 7036   8.359   1.852   0.553  0.1316  0.1506  1.1621
 1948SOL     OW 7037   0.586   5.825   7.156  0.4089 -0.0210 -0.3716
 1948SOL    HW1 7038   0.611   5.914   7.130 -0.2779  0.5455  0.8074
 1948SOL    HW2 7039   0.506   5.808   7.108 -0.8902  1.0444  1.2781
 1949SOL     OW 7040   4.989   1.963   6.563  0.0217  0.1529  0.6265
 1949SOL    HW1 7041   4.933   2.039   6.550 -0.9358 -0.7265 -0.6684
 1949SOL    HW2 7042   5.066   1.997   6.609 -0.6185  1.7809  0.5506
 1950SOL     OW 7043   2.952   3.544   4.714  0.1233 -0.1217 -0.1174
 1950SOL    HW1 7044   2.875   3.525   4.767  0.8746  1.2103  1.5614
 1950SOL    HW2 7045   2.933   3.629   4.673  0.1181 -0.4861 -0.8893
 1951SOL     OW 7046   7.961   0.484   1.518  0.7840 -0.3665 -0.0694
 1951SOL    HW1 7047   7.891   0.531   1.473  1.5891  0.1251 -0.8668
 1951SOL    HW2 7048   7.917   0.431   1.584 -0.2902  0.2657 -0.2559
 1952SOL     OW 7049   8.294   4.256   2.249  0.0813  0.3848 -0.1703
 1952SOL    HW1 7050   8.223   4.195   2.264 -0.2088  0.1316 -2.1962
 1952SOL    HW2 7051   8.251   4.340   2.234  0.0636  0.0918 -2.1344
 1953SOL     OW 7052   1.253   5.450   8.185  0.0295  0.1192  0.1399
 1953SOL    HW1 7053   1.291   5.466   8.271 -0.9831  0.1227  0.5967
 1953SOL    HW2 7054   1.159   5.443   8.200 -0.0886 -0.7782 -0.8404
 1954SOL     OW 7055   4.541   3.752   4.878 -0.2621  0.2881 -0.0470
 1954SOL    HW1 7056   4.524   3.771   4.970 -0.6549 -0.2180 -0.0118
 1954SOL    HW2 7057   4.636   3.743   4.872 -0.3264 -1.0237  0.5823
 1955SOL     OW 7058   8.448   0.088   2.882  0.5614  0.1628 -0.0958
 1955SOL    HW1 7059   8.533   0.078   2.839  0.7912  0.3001  0.3206
 1955SOL    HW2 7060   8.396   0.014   2.849  1.0618 -0.3137  0.1597
 1956SOL     OW 7061   3.874   8.569   8.507  0.2106 -0.0259  0.4012
 1956SOL    HW1 7062   3.846   8.481   8.534 -0.7396 -0.1883 -1.0275
 1956SOL    HW2 7063   3.860   8.571   8.413  1.1458  1.3493  0.2614
 1957SOL     OW 7064   3.821   7.697   7.905  0.5906 -0.4165 -0.1083
 1957SOL    HW1 7065   3.777   7.725   7.825 -1.1538  0.7025  1.1697
 1957SOL    HW2 7066   3.824   7.776   7.960 -0.7889 -1.7322  2.0140
 1958SOL     OW 7067   8.413   1.150   8.526 -0.6329  0.1506 -0.4850
 1958SOL    HW1 7068   8.471   1.126   8.454  2.6584  0.8516  1.7162
 1958SOL    HW2 7069   8.428   1.243   8.539  0.2161 -0.2523  2.0853
 1959SOL     OW 7070   1.180   7.880   4.903 -1.1851  0.3006  0.5681
 1959SOL    HW1 7071   1.108   7.891   4.840 -0.0929  2.4728 -0.4001
 1959SOL    HW2 7072   1.202   7.787   4.897 -3.1595 -0.1930  0.0770
 1960SOL     OW 7073   5.166   1.815   7.311 -0.3406  0.7810  0.2322
 1960SOL    HW1 7074   5.080   1.815   7.352  0.4318  2.0499  1.9983
 1960SOL    HW2 7075   5.212   1.741   7.350 -0.3837  0.5530 -0.1461
 1961SOL     OW 7076   6.259   2.657   2.237  0.4854 -0.1268  0.0604
 1961SOL    HW1 7077   6.276   2.575   2.284  0.4396 -0.4789 -0.5308
 1961SOL    HW2 7078   6.317   2.654   2.161 -0.3300 -0.1345 -0.5733
 1962SOL     OW 7079   5.270   4.155   0.412  0.3622  0.8867 -0.5565
 1962SOL    HW1 7080   5.279   4.064   0.382  0.2951  0.1336  1.5372
 1962SOL    HW2 7081   5.188   4.184   0.374 -0.0178 -0.2046 -0.6142
 1963SOL     OW 7082   4.782   0.484   4.354 -0.2972 -0.4149  0.4811
 1963SOL    HW1 7083   4.770   0.579   4.363  0.9141 -0.0228 -1.4908
 1963SOL    HW2 7084   4.736   0.462   4.273  1.3589 -1.0810 -0.3110
 1964SOL     OW 7085   3.638   6.267   5.337 -0.2371 -0.4118  0.2256
 1964SOL    HW1 7086   3.633   6.176   5.366  0.5367 -0.5688 -0.0993
 1964SOL    HW2 7087   3.676   6.262   5.250  3.0616  0.3791  1.4477
 1965SOL     OW 7088   8.313   7.877   7.332 -0.1034  0.1568  1.0120
 1965SOL    HW1 7089   8.230   7.898   7.289  0.7473  2.4716  0.3230
 1965SOL    HW2 7090   8.358   7.818   7.271 -1.4038 -1.5627  1.6445
 1966SOL     OW 7091   2.317   3.009   0.609 -0.4527  0.1109 -0.3435
 1966SOL    HW1 7092   2.240   3.033   0.557 -0.2935  2.4946  0.4128
 1966SOL    HW2 7093   2.382   3.076   0.588  1.2243 -1.4853 -0.4682
 1967SOL     OW 7094   3.090   8.538   4.815  0.2735 -0.2517  0.5031
 1967SOL    HW1 7095   3.160   8.549   4.750  0.3275 -0.0219  0.6005
 1967SOL    HW2 7096   3.084   8.443   4.828 -0.1022 -0.3401 -0.2417
 1968SOL     OW 7097   1.277   0.899   6.017  0.2810  0.6843 -0.0018
 1968SOL    HW1 7098   1.218   0.867   6.085  0.5200  0.0017 -0.1091
 1968SOL    HW2 7099   1.298   0.988   6.044  1.8461 -0.1841  1.8332
 1969SOL     OW 7100   3.098   7.979   7.972  0.6013  0.0829 -0.3724
 1969SOL    HW1 7101   3.049   7.898   7.960  0.7442 -0.2457  1.1140
 1969SOL    HW2 7102   3.190   7.953   7.964  0.6217  0.2740 -0.7998
 1970SOL     OW 7103   7.148   0.708   2.973 -0.2941 -0.6880 -0.8012
 1970SOL    HW1 7104   7.105   0.764   2.909  0.5161 -0.7917 -1.4399
 1970SOL    HW2 7105   7.228   0.755   2.996  0.6279 -1.7815 -1.6896
 1971SOL     OW 7106   4.135   5.994   0.388 -0.5086 -0.0554  0.0832
 1971SOL    HW1 7107   4.161   5.905   0.365 -0.8266 -0.0165 -0.4288
 1971SOL    HW2 7108   4.144   5.997   0.484  0.2207 -0.4019  0.0348
 1972SOL     OW 7109   5.140   8.146   2.813  0.5458 -0.0804  0.2616
 1972SOL    HW1 7110   5.103   8.196   2.885 -0.3613 -1.6368  0.9268
 1972SOL    HW2 7111   5.198   8.082   2.855  0.5658 -0.5290 -0.4267
 1973SOL     OW 7112   0.296   3.135   1.628 -0.2801 -1.0153  0.3040
 1973SOL    HW1 7113   0.218   3.079   1.631 -0.2362 -1.1955 -1.2345
 1973SOL    HW2 7114   0.322   3.134   1.536  0.9715 -0.1636  0.6361
 1974SOL     OW 7115   0.759   0.432   7.670 -0.1925 -0.0590 -0.6222
 1974SOL    HW1 7116   0.755   0.337   7.678 -0.3795  0.0219  0.4670
 1974SOL    HW2 7117   0.721   0.451   7.584  1.3671 -1.0534 -1.5840
 1975SOL     OW 7118   7.848   4.291   5.838 -0.2446  0.4886  0.4919
 1975SOL    HW1 7119   7.891   4.317   5.757  0.5202  1.6558  1.2360
 1975SOL    HW2 7120   7.829   4.374   5.882  0.0182 -0.1380  1.8302
 1976SOL     OW 7121   3.824   1.242   7.337 -0.2816 -0.1923  0.8230
 1976SOL    HW1 7122   3.820   1.310   7.404  2.4668  1.1124 -0.2073
 1976SOL    HW2 7123   3.787   1.282   7.259 -0.5368 -0.6056  0.7265
 1977SOL     OW 7124   0.395   2.907   4.064  0.0835  0.2355  0.4374
 1977SOL    HW1 7125   0.340   2.963   4.009  0.0275 -1.8025 -1.8086
 1977SOL    HW2 7126   0.457   2.868   4.002  1.1367 -0.9365  2.1575
 1978SOL     OW 7127   6.687   2.597   7.460 -0.0553 -0.1045  0.5712
 1978SOL    HW1 7128   6.727   2.530   7.516  0.2166  0.1082  0.6349
 1978SOL    HW2 7129   6.604   2.617   7.503 -1.1052 -1.8639 -0.5432
 1979SOL     OW 7130   2.226   7.318   1.152  0.1859  0.0373  0.7182
 1979SOL    HW1 7131   2.220   7.406   1.116  1.2978  0.6064  1.8423
 1979SOL    HW2 7132   2.314   7.313   1.188  1.4314 -2.7121 -2.2354
 1980SOL     OW 7133   1.990   4.760   7.208  0.1030  0.6128  0.1657
 1980SOL    HW1 7134   1.972   4.818   7.282 -1.0402 -0.8922  1.1396
 1980SOL    HW2 7135   2.031   4.683   7.248 -0.9351 -0.4174 -0.6681
 1981SOL     OW 7136   0.328   4.966   1.657  0.2394 -0.5346  0.3388
 1981SOL    HW1 7137   0.266   5.030   1.622  0.4405 -0.8643 -0.6365
 1981SOL    HW2 7138   0.288   4.881   1.639  1.5246 -0.8138 -1.4638
 1982SOL     OW 7139   0.011   5.486   8.094  0.0823 -0.0865 -0.5775
 1982SOL    HW1 7140   0.002   5.545   8.169 -0.3531 -0.4017 -0.3777
 1982SOL    HW2 7141   0.080   5.525   8.041 -1.3341  1.5574 -1.3268
 1983SOL     OW 7142   4.607   2.423   8.483  0.5828 -0.2221 -0.3616
 1983SOL    HW1 7143   4.628   2.478   8.558  1.7748  0.4277 -1.1464
 1983SOL    HW2 7144   4.646   2.468   8.408  3.3787 -3.0620 -0.8371
 1984SOL     OW 7145   6.279   2.964   0.090 -0.0058 -0.2687 -0.3767
 1984SOL    HW1 7146   6.280   2.968   0.186 -0.6864 -0.6279 -0.3519
 1984SOL    HW2 7147   6.208   3.023   0.064 -0.0653 -0.4547 -0.6426
 1985SOL     OW 7148   2.959   8.375   8.071 -0.1950 -0.8058  0.3474
 1985SOL    HW1 7149   2.877   8.424   8.081 -0.1055 -0.4533 -0.5554
 1985SOL    HW2 7150   3.023   8.441   8.044 -0.1999 -1.4739 -1.4628
 1986SOL     OW 7151   0.830   7.500   2.022  0.5848  0.3012 -0.7336
 1986SOL    HW1 7152   0.783   7.424   2.056  1.4591 -0.2058 -0.6313
 1986SOL    HW2 7153   0.895   7.463   1.962  2.0163  0.8101  0.4239
 1987SOL     OW 7154   2.453   7.340   0.836 -0.3210  0.4201 -0.6453
 1987SOL    HW1 7155   2.443   7.367   0.927  0.2723  0.2228 -0.5187
 1987SOL    HW2 7156   2.546   7.322   0.826 -0.6905 -1.6410 -0.7091
 1988SOL     OW 7157   3.502   1.516   3.822 -0.4995 -0.1991 -0.1704
 1988SOL    HW1 7158   3.566   1.514   3.751  0.3449 -0.3897  0.5825
 1988SOL    HW2 7159   3.544   1.566   3.891 -0.6522 -1.3863  0.8110
 1989SOL     OW 7160   2.438   8.468   1.221  0.3296  0.7428 -0.2674
 1989SOL    HW1 7161   2.430   8.503   1.310  1.2070 -0.8676  0.4897
 1989SOL    HW2 7162   2.349   8.448   1.195  0.2017 -0.5632  1.0472
 1990SOL     OW 7163   3.487   0.706   4.449 -0.5365 -0.4264  0.2440
 1990SOL    HW1 7164   3.431   0.631   4.469  0.9183 -1.6627 -0.1287
 1990SOL    HW2 7165   3.457   0.736   4.363 -1.1840 -0.5151  0.4325
 1991SOL     OW 7166   7.833   4.540   7.784  0.6033  0.1939 -0.3456
 1991SOL    HW1 7167   7.909   4.584   7.745  1.1401 -0.3502  0.0608
 1991SOL    HW2 7168   7.849   4.546   7.878 -1.6540  3.2833 -0.0103
 1992SOL     OW 7169   0.930   3.852   7.895  0.2214 -0.1398 -0.1971
 1992SOL    HW1 7170   0.867   3.925   7.898  0.5464  0.1066  1.3858
 1992SOL    HW2 7171   0.876   3.774   7.911  0.3168  0.0906  1.3669
 1993SOL     OW 7172   0.926   5.197   0.730 -0.5235  0.6442  0.2676
 1993SOL    HW1 7173   0.902   5.111   0.694  1.5467 -0.2206  0.8240
 1993SOL    HW2 7174   0.920   5.257   0.656 -2.5331  0.1796 -0.0100
 1994SOL     OW 7175   0.479   0.865   3.509  0.2129 -0.1537 -0.4852
 1994SOL    HW1 7176   0.400   0.828   3.549 -0.3308 -0.7928 -2.0663
 1994SOL    HW2 7177   0.447   0.931   3.448  0.7221 -1.7271 -2.5481
 1995SOL     OW 7178   3.720   0.309   6.938  0.4452  0.2225 -0.6798
 1995SOL    HW1 7179   3.666   0.384   6.913  1.4573  1.4090  0.5619
 1995SOL    HW2 7180   3.807   0.329   6.903  1.3999  0.9944  1.8736
 1996SOL     OW 7181   3.870   1.864   6.082  0.1682 -0.1643 -0.8314
 1996SOL    HW1 7182   3.946   1.860   6.140  0.1192  1.3185 -0.6123
 1996SOL    HW2 7183   3.794   1.862   6.140  0.0752 -0.4198 -0.9610
 1997SOL     OW 7184   5.296   3.171   1.302  0.2220 -0.8253  0.0287
 1997SOL    HW1 7185   5.375   3.118   1.307  1.3315  0.7119 -0.5577
 1997SOL    HW2 7186   5.269   3.166   1.210  1.9980  1.8220 -0.7612
 1998SOL     OW 7187   6.367   2.627   0.310  0.1240 -0.2780  0.4206
 1998SOL    HW1 7188   6.459   2.653   0.318  0.5801 -1.1012 -1.5103
 1998SOL    HW2 7189   6.338   2.665   0.228 -0.2188 -2.7739 -0.7054
 1999SOL     OW 7190   8.565   6.699   1.344 -0.6048  0.2527  1.0490
 1999SOL    HW1 7191   8.492   6.753   1.375  0.8250  3.3556 -0.5190
 1999SOL    HW2 7192   8.532   6.658   1.264 -0.5652  2.0611  0.0532
 2000SOL     OW 7193   0.057   7.062   2.554 -0.3606  0.6389 -0.2994
 2000SOL    HW1 7194   0.012   7.006   2.618 -3.3168  1.9380 -1.0499
 2000SOL    HW2 7195   0.091   7.002   2.489  1.0099 -0.5769  1.4473
 2001SOL     OW 7196   4.568   0.306   7.124 -0.3373 -0.2208 -0.4674
 2001SOL    HW1 7197   4.605   0.394   7.133  3.2522 -1.3992 -1.9383
 2001SOL    HW2 7198   4.555   0.276   7.214  0.6406  0.9512  0.0989
 2002SOL     OW 7199   1.815   0.970   0.699  0.2953 -0.4273  0.0303
 2002SOL    HW1 7200   1.772   1.029   0.761  0.2193 -0.2900 -0.1526
 2002SOL    HW2 7201   1.777   0.884   0.717 -0.1370 -0.2881 -0.2046
 2003SOL     OW 7202   0.715   3.473   1.734  0.1772  0.1786  0.0550
 2003SOL    HW1 7203   0.806   3.481   1.764  0.5082  0.3575 -0.9460
 2003SOL    HW2 7204   0.664   3.465   1.814  1.2706 -2.0149  0.6191
 2004SOL     OW 7205   7.559   3.316   4.632 -0.0493 -1.0035  0.2764
 2004SOL    HW1 7206   7.640   3.366   4.634 -0.0111 -0.9553 -1.3490
 2004SOL    HW2 7207   7.491   3.379   4.657  0.1781 -0.5321 -0.2766
 2005SOL     OW 7208   7.335   0.755   4.479 -0.3388  0.2383 -0.3163
 2005SOL    HW1 7209   7.427   0.756   4.505 -0.1214 -1.1439 -0.9393
 2005SOL    HW2 7210   7.334   0.793   4.392 -0.1558 -0.8437 -0.8126
 2006SOL     OW 7211   4.883   6.194   7.686  0.1540  0.3280  0.1839
 2006SOL    HW1 7212   4.799   6.155   7.709 -0.1011  1.6478  1.6555
 2006SOL    HW2 7213   4.897   6.263   7.751  0.5505  2.7652 -2.2699
 2007SOL     OW 7214   4.280   6.261   4.947  0.2615  0.3276  0.0126
 2007SOL    HW1 7215   4.241   6.185   4.903 -0.9294  0.6145  0.5357
 2007SOL    HW2 7216   4.206   6.303   4.992  1.5586 -0.6417  3.3501
 2008SOL     OW 7217   8.545   3.744   3.584 -0.1700  0.0026 -0.2758
 2008SOL    HW1 7218   8.488   3.674   3.552  0.5477 -0.2399 -1.0779
 2008SOL    HW2 7219   8.608   3.756   3.513  1.7635 -0.8424  1.2151
 2009SOL     OW 7220   7.841   3.908   6.112 -0.0026 -0.3812 -0.0331
 2009SOL    HW1 7221   7.764   3.889   6.059  0.9926  0.8302 -1.9929
 2009SOL    HW2 7222   7.851   4.003   6.108  0.8003 -0.3720  1.3895
 2010SOL     OW 7223   6.987   4.888   2.093 -0.2909  0.0826  0.2360
 2010SOL    HW1 7224   7.000   4.795   2.073 -1.5325 -0.1510  0.3756
 2010SOL    HW2 7225   6.945   4.887   2.179  0.3905  0.8216  0.5859
 2011SOL     OW 7226   7.629   5.233   4.371  0.2968 -0.6718  0.3209
 2011SOL    HW1 7227   7.655   5.324   4.359  1.4041 -0.9287  0.6202
 2011SOL    HW2 7228   7.674   5.206   4.451  1.7341 -2.0848 -0.8955
 2012SOL     OW 7229   7.769   2.530   2.654 -0.7381 -0.1176 -0.1112
 2012SOL    HW1 7230   7.706   2.550   2.724 -0.1664  2.1355 -0.1671
 2012SOL    HW2 7231   7.847   2.501   2.701  0.5169  3.7016  0.5286
 2013SOL     OW 7232   8.092   1.267   6.566 -0.3197 -0.8191 -0.8777
 2013SOL    HW1 7233   8.070   1.341   6.622 -0.7719 -2.3558  1.0983
 2013SOL    HW2 7234   8.008   1.236   6.532 -0.2703 -1.2337 -0.6257
 2014SOL     OW 7235   2.302   2.807   3.815  0.0869  0.1272  0.6487
 2014SOL    HW1 7236   2.357   2.746   3.767  0.5978  0.5392  0.6917
 2014SOL    HW2 7237   2.240   2.752   3.863  0.8142 -0.3685  1.0226
 2015SOL     OW 7238   3.963   1.761   5.678 -0.0515 -0.2131  0.1837
 2015SOL    HW1 7239   3.914   1.836   5.712  1.2088  0.2214  1.0940
 2015SOL    HW2 7240   4.053   1.792   5.673 -0.0285 -0.4961 -2.9022
 2016SOL     OW 7241   3.060   5.455   6.878 -0.7267 -0.8115 -0.3086
 2016SOL    HW1 7242   3.102   5.415   6.955 -0.8112  0.0214  0.1796
 2016SOL    HW2 7243   3.105   5.538   6.867 -3.0633  0.7755  1.0633
 2017SOL     OW 7244   0.332   4.992   0.067  0.5694  0.1064 -0.2868
 2017SOL    HW1 7245   0.236   4.990   0.060  0.6399 -0.5879 -1.1265
 2017SOL    HW2 7246   0.349   5.064   0.128 -0.4937  0.1099  0.0364
 2018SOL     OW 7247   3.544   3.580   3.724  0.3269  0.2991  0.0138
 2018SOL    HW1 7248   3.624   3.561   3.674  0.0650  1.1456 -0.7556
 2018SOL    HW2 7249   3.523   3.498   3.768  0.5172 -0.5215 -1.3678
 2019SOL     OW 7250   6.576   8.232   1.584  0.0404 -0.0372 -0.2469
 2019SOL    HW1 7251   6.641   8.293   1.618  1.3595 -1.1833 -0.6530
 2019SOL    HW2 7252   6.556   8.175   1.658  0.9015 -0.8377 -0.6101
 2020SOL     OW 7253   7.410   1.050   1.055 -0.1748  0.4099 -0.5212
 2020SOL    HW1 7254   7.365   1.123   1.014 -0.1021  0.5186 -0.4058
 2020SOL    HW2 7255   7.482   1.090   1.105 -0.8092  0.3528  0.4501
 2021SOL     OW 7256   8.453   1.403   0.426  0.0914 -0.8423 -0.0155
 2021SOL    HW1 7257   8.517   1.445   0.369 -1.9107 -0.8365 -2.4042
 2021SOL    HW2 7258   8.387   1.368   0.367 -0.7118 -3.3503  2.1583
 2022SOL     OW 7259   2.254   3.721   3.710  0.0165 -0.0286  0.4322
 2022SOL    HW1 7260   2.278   3.802   3.666 -0.9318  0.4133  0.7024
 2022SOL    HW2 7261   2.332   3.697   3.760  0.6404  0.1782 -0.4091
 2023SOL     OW 7262   1.988   8.215   1.605  0.3514 -0.7781  0.2806
 2023SOL    HW1 7263   1.962   8.208   1.697  2.1081  1.1542  1.0036
 2023SOL    HW2 7264   2.047   8.141   1.591  0.4656 -0.8036  0.8784
 2024SOL     OW 7265   4.577   0.880   6.175 -0.3041 -0.1732  0.8635
 2024SOL    HW1 7266   4.617   0.829   6.105 -1.1731 -2.7952  2.1364
 2024SOL    HW2 7267   4.647   0.893   6.239 -0.3242 -0.6500  0.9828
 2025SOL     OW 7268   1.587   0.245   0.591 -0.1390 -0.1477  0.0234
 2025SOL    HW1 7269   1.552   0.269   0.676  1.6928  3.2556 -0.0251
 2025SOL    HW2 7270   1.667   0.196   0.611  0.5472  1.0638  0.2982
 2026SOL     OW 7271   2.380   2.449   5.300 -0.5175  0.3964  0.1117
 2026SOL    HW1 7272   2.425   2.366   5.313 -0.1853  0.7784  1.5323
 2026SOL    HW2 7273   2.292   2.435   5.334 -0.8327  0.2744 -0.7442
 2027SOL     OW 7274   8.370   0.082   7.348  0.2469 -0.0219 -0.6684
 2027SOL    HW1 7275   8.367   0.024   7.272 -0.4243 -2.2711  0.9819
 2027SOL    HW2 7276   8.325   0.161   7.318 -3.2977 -2.1475 -1.6386
 2028SOL     OW 7277   1.407   8.409   7.939 -0.4464  0.0100  0.1742
 2028SOL    HW1 7278   1.348   8.429   8.012  0.9273 -1.3741  1.7408
 2028SOL    HW2 7279   1.380   8.322   7.910  0.7490 -0.6484  0.9204
 2029SOL     OW 7280   2.515   0.620   8.109 -0.5379  0.0679  0.4611
 2029SOL    HW1 7281   2.599   0.662   8.089 -0.8146  0.7306  0.6707
 2029SOL    HW2 7282   2.520   0.598   8.202 -0.4652 -0.2041  0.3942
 2030SOL     OW 7283   5.182   0.013   5.695 -0.2825 -0.4926  0.5597
 2030SOL    HW1 7284   5.135  -0.024   5.621 -0.5111  0.3909  0.2508
 2030SOL    HW2 7285   5.130  -0.012   5.771 -0.0147 -1.4494  0.4415
 2031SOL     OW 7286   3.386   3.812   1.143  0.1270  0.3967  0.1925
 2031SOL    HW1 7287   3.397   3.895   1.189 -0.3922  0.0401  0.9899
 2031SOL    HW2 7288   3.421   3.747   1.204 -0.4024 -0.0680  0.0049
 2032SOL     OW 7289   1.371   1.256   7.114  0.6380  0.3480  0.5606
 2032SOL    HW1 7290   1.434   1.328   7.110 -0.8770  1.7105  0.2277
 2032SOL    HW2 7291   1.288   1.295   7.085  0.3510 -2.2676 -2.6410
 2033SOL     OW 7292   6.488   3.311   2.628  0.5704 -0.2731 -0.4443
 2033SOL    HW1 7293   6.414   3.321   2.689  2.4839 -0.4056  2.0677
 2033SOL    HW2 7294   6.476   3.225   2.589  0.2418 -1.0086  1.1990
 2034SOL     OW 7295   6.326   7.160   0.904 -0.3982 -0.1803  0.2113
 2034SOL    HW1 7296   6.368   7.111   0.833  0.4724 -0.7127  1.0787
 2034SOL    HW2 7297   6.233   7.142   0.894 -0.4656  0.8837 -1.6557
 2035SOL     OW 7298   6.049   3.346   3.794 -0.4557 -0.3600 -0.0558
 2035SOL    HW1 7299   5.993   3.422   3.810 -0.7100 -0.5050 -0.2628
 2035SOL    HW2 7300   6.057   3.305   3.880 -0.4840 -0.2141  0.0173
 2036SOL     OW 7301   8.087   7.985   7.984 -0.0381 -0.1112  0.6737
 2036SOL    HW1 7302   8.063   7.907   7.934 -2.3773  1.0226 -0.1313
 2036SOL    HW2 7303   8.151   7.954   8.049  3.2673 -1.6570 -2.9450
 2037SOL     OW 7304   6.688   0.197   8.098  0.5066 -0.4080 -0.1255
 2037SOL    HW1 7305   6.599   0.208   8.129 -0.0712 -0.3356 -1.7340
 2037SOL    HW2 7306   6.689   0.236   8.010  2.1206 -0.3846 -0.1424
 2038SOL     OW 7307   4.109   3.890   6.243 -0.2284  0.2179  0.1157
 2038SOL    HW1 7308   4.133   3.895   6.150 -3.1686  2.0190 -0.6940
 2038SOL    HW2 7309   4.023   3.846   6.243 -0.7439  1.1361  1.8436
 2039SOL     OW 7310   1.732   6.287   4.349 -0.2952  0.5483 -0.1801
 2039SOL    HW1 7311   1.816   6.330   4.366 -0.4252  0.7969 -0.1683
 2039SOL    HW2 7312   1.726   6.220   4.418 -0.7203  1.4123  0.6466
 2040SOL     OW 7313   5.320   3.985   6.247  0.4248 -0.0809  0.2820
 2040SOL    HW1 7314   5.238   3.935   6.249  1.2276 -1.5649  3.6693
 2040SOL    HW2 7315   5.293   4.076   6.264 -0.6580 -0.1264 -1.0353
 2041SOL     OW 7316   3.077   2.136   5.230 -0.0142  0.0271  0.1587
 2041SOL    HW1 7317   3.006   2.165   5.174 -0.5425 -0.9986  0.2697
 2041SOL    HW2 7318   3.082   2.041   5.216 -0.0565 -0.2373  1.6967
 2042SOL     OW 7319   1.277   4.246   5.418  0.5235 -0.3105  0.5788
 2042SOL    HW1 7320   1.184   4.225   5.414  0.2646  0.8689 -1.1710
 2042SOL    HW2 7321   1.317   4.172   5.463 -1.2519 -0.8424  1.3606
 2043SOL     OW 7322   3.997   4.378   3.727  0.0120 -0.0300  0.1491
 2043SOL    HW1 7323   3.947   4.296   3.720 -1.2032  0.6794  0.2298
 2043SOL    HW2 7324   3.938   4.445   3.692  1.6922  0.5719 -1.6654
 2044SOL     OW 7325   5.371   2.117   1.466  0.3757  0.2358 -0.4671
 2044SOL    HW1 7326   5.288   2.087   1.429 -0.0633 -0.3074  0.9126
 2044SOL    HW2 7327   5.350   2.145   1.555  1.5368  0.8259 -0.3529
 2045SOL     OW 7328   5.039   1.554   1.739 -0.7066  0.1966 -0.3239
 2045SOL    HW1 7329   5.114   1.503   1.712  2.2180  3.6650  0.4150
 2045SOL    HW2 7330   5.014   1.518   1.824  0.3715 -0.8145 -0.4163
 2046SOL     OW 7331   7.094   0.188   5.919  1.0600 -0.1547 -0.2366
 2046SOL    HW1 7332   7.155   0.118   5.943  0.2747 -0.3085  1.3861
 2046SOL    HW2 7333   7.086   0.180   5.824  0.5662 -2.6316 -0.0451
 2047SOL     OW 7334   4.533   2.714   0.280 -0.1227 -0.1696  0.3387
 2047SOL    HW1 7335   4.612   2.748   0.323 -0.0156 -1.0439  0.8518
 2047SOL    HW2 7336   4.564   2.641   0.227 -0.3514  0.5158 -0.7816
 2048SOL     OW 7337   1.195   1.976   3.961  0.2236  0.4802 -0.3678
 2048SOL    HW1 7338   1.130   1.922   3.916 -1.3608  2.1020 -0.1396
 2048SOL    HW2 7339   1.159   2.064   3.957  1.7684  1.2138  0.9980
 2049SOL     OW 7340   6.849   7.193   4.602 -0.4841  0.2178  0.4399
 2049SOL    HW1 7341   6.930   7.156   4.566 -0.5915 -0.0792  0.5030
 2049SOL    HW2 7342   6.820   7.128   4.666 -1.1339  0.0075 -0.0586
 2050SOL     OW 7343   6.378   2.487   1.447 -0.1176  0.4966  0.6517
 2050SOL    HW1 7344   6.457   2.524   1.408 -0.8562  0.9946 -0.4235
 2050SOL    HW2 7345   6.385   2.393   1.431 -0.4652  0.7020 -0.8436
 2051SOL     OW 7346   1.067   6.858   0.230 -0.3139 -0.0381  0.4723
 2051SOL    HW1 7347   0.999   6.897   0.285 -0.6985 -0.5425  0.3656
 2051SOL    HW2 7348   1.147   6.863   0.282 -0.5320  0.1307  0.7908
 2052SOL     OW 7349   1.637   5.806   7.671  0.3114  0.2992  0.0392
 2052SOL    HW1 7350   1.576   5.742   7.633 -1.5856  0.0823  3.0408
 2052SOL    HW2 7351   1.721   5.762   7.671 -0.7633 -1.9342  1.1424
 2053SOL     OW 7352   2.042   5.491   1.952  0.2007  0.0929  0.3340
 2053SOL    HW1 7353   2.104   5.429   1.913 -0.9498 -1.4932  0.9205
 2053SOL    HW2 7354   1.996   5.440   2.019 -1.8608  1.1363 -0.2053
 2054SOL     OW 7355   3.801   3.428   0.008  0.6908  0.4187 -0.5286
 2054SOL    HW1 7356   3.846   3.344   0.010  1.5280  0.8835  1.1766
 2054SOL    HW2 7357   3.846   3.477  -0.061  2.5244  0.6899  0.7919
 2055SOL     OW 7358   0.587   6.479   7.297 -0.1314 -0.2746 -0.1657
 2055SOL    HW1 7359   0.610   6.534   7.222  0.3987 -1.0130 -0.5646
 2055SOL    HW2 7360   0.671   6.463   7.340 -0.3757 -0.2154  0.3322
 2056SOL     OW 7361   5.246   2.616   5.963  0.0470  0.4325 -0.1978
 2056SOL    HW1 7362   5.280   2.596   6.050 -1.1692 -0.0029  0.2010
 2056SOL    HW2 7363   5.280   2.547   5.907 -0.4710 -0.1999  0.2628
 2057SOL     OW 7364   6.208   8.458   1.073 -0.0149 -0.5117 -0.2499
 2057SOL    HW1 7365   6.235   8.503   0.993 -0.6094 -1.1283 -0.8009
 2057SOL    HW2 7366   6.243   8.369   1.065 -0.5103 -0.7313 -0.0638
 2058SOL     OW 7367   7.036   5.263   7.808 -0.1547 -0.6173 -0.0125
 2058SOL    HW1 7368   6.971   5.323   7.843 -0.0373 -0.1331 -0.6017
 2058SOL    HW2 7369   7.103   5.257   7.876  1.7590  2.9051 -1.3070
 2059SOL     OW 7370   1.021   4.579   5.497 -0.0259 -0.4077  0.3618
 2059SOL    HW1 7371   1.045   4.664   5.532  1.3842 -0.8964  0.6363
 2059SOL    HW2 7372   1.049   4.516   5.563 -0.9993 -1.1021  0.1408
 2060SOL     OW 7373   4.323   5.651   2.944  0.1885  0.6248  0.0334
 2060SOL    HW1 7374   4.263   5.620   2.877 -1.0047  1.7141  0.5439
 2060SOL    HW2 7375   4.376   5.718   2.900  1.8380 -1.0954 -0.7078
 2061SOL     OW 7376   4.574   1.208   5.220  0.6987 -0.3003  0.5750
 2061SOL    HW1 7377   4.648   1.268   5.222  0.7749 -0.3825  0.3276
 2061SOL    HW2 7378   4.613   1.122   5.241  0.5940 -0.2677  0.9114
 2062SOL     OW 7379   1.760   2.362   1.639  0.1192 -0.4928  0.0869
 2062SOL    HW1 7380   1.677   2.410   1.639  0.5341  0.2672  1.1211
 2062SOL    HW2 7381   1.806   2.394   1.717  1.9890  0.1227 -1.2165
 2063SOL     OW 7382   3.953   4.917   1.337 -0.0177 -0.3844 -0.2036
 2063SOL    HW1 7383   3.913   4.839   1.376  0.8231 -0.9233 -0.3892
 2063SOL    HW2 7384   3.883   4.957   1.286 -1.0335  0.0926  1.4705
 2064SOL     OW 7385   6.929   0.115   3.193  0.3912 -0.1025  0.4626
 2064SOL    HW1 7386   6.897   0.126   3.104  1.5517  0.4320  0.0949
 2064SOL    HW2 7387   6.850   0.123   3.248 -0.1760  0.7074 -0.4340
 2065SOL     OW 7388   4.288   1.249   6.925 -0.1495 -0.1596  0.4085
 2065SOL    HW1 7389   4.331   1.251   7.011  0.1404 -1.2550  0.3025
 2065SOL    HW2 7390   4.216   1.311   6.933  0.2118  0.1630  1.2656
 2066SOL     OW 7391   8.515   4.297   2.758 -0.7142  0.2050  0.0575
 2066SOL    HW1 7392   8.446   4.261   2.813 -1.4918 -1.1731 -1.7272
 2066SOL    HW2 7393   8.503   4.255   2.673  2.2876 -0.0491 -0.3566
 2067SOL     OW 7394   4.213   4.065   5.955  0.4086  0.3945 -0.9094
 2067SOL    HW1 7395   4.156   4.027   5.889  0.0922  1.1928 -1.1143
 2067SOL    HW2 7396   4.153   4.107   6.017  0.7514  2.0492 -1.6231
 2068SOL     OW 7397   0.099   3.572   6.108  0.0570 -0.0249  0.1379
 2068SOL    HW1 7398   0.140   3.631   6.171 -1.2420 -0.4685  1.4423
 2068SOL    HW2 7399   0.137   3.487   6.127  0.6746  0.0652 -0.6224
 2069SOL     OW 7400   3.311   4.583   7.979 -0.1058  0.1474  0.0569
 2069SOL    HW1 7401   3.222   4.559   7.953 -0.8457  0.4498  2.1123
 2069SOL    HW2 7402   3.336   4.516   8.042  0.2178  1.2905  1.1854
 2070SOL     OW 7403   1.274   0.008   1.384  0.1572  0.2642  0.4078
 2070SOL    HW1 7404   1.278   0.011   1.479  2.0809 -2.0674  0.4861
 2070SOL    HW2 7405   1.225  -0.071   1.363 -2.0901  1.8004 -0.6611
 2071SOL     OW 7406   8.435   5.616   0.569  0.0355 -0.0005  0.1426
 2071SOL    HW1 7407   8.387   5.539   0.540 -2.2774  1.3229  0.2412
 2071SOL    HW2 7408   8.410   5.684   0.507  1.9797  0.7337  0.0977
 2072SOL     OW 7409   3.869   1.523   8.087 -0.2073 -0.3240 -0.1347
 2072SOL    HW1 7410   3.799   1.504   8.150 -1.1709 -0.5690 -1.2613
 2072SOL    HW2 7411   3.942   1.467   8.115 -1.4851 -2.3812 -0.7252
 2073SOL     OW 7412   4.492   2.324   4.182 -0.3569 -0.0186  0.0012
 2073SOL    HW1 7413   4.575   2.329   4.230  0.7145 -0.8739 -1.6730
 2073SOL    HW2 7414   4.518   2.324   4.090 -2.3166  1.0356 -0.5983
 2074SOL     OW 7415   6.213   2.296   2.207 -0.1135 -0.2111 -0.2368
 2074SOL    HW1 7416   6.281   2.322   2.145 -0.5729 -0.1626 -0.7228
 2074SOL    HW2 7417   6.135   2.284   2.154 -0.8269  1.0249  0.4884
 2075SOL     OW 7418   5.863   3.544   4.389 -0.0394  0.2621 -0.0814
 2075SOL    HW1 7419   5.789   3.497   4.429 -0.9631  1.1906 -0.6344
 2075SOL    HW2 7420   5.888   3.609   4.455 -0.1308  0.3627 -0.1460
 2076SOL     OW 7421   0.207   6.308   7.432 -0.7973  0.3637  0.2468
 2076SOL    HW1 7422   0.137   6.350   7.382 -0.7328 -1.0014 -1.0535
 2076SOL    HW2 7423   0.162   6.251   7.494 -0.8574 -0.1394 -0.2530
 2077SOL     OW 7424   8.533   7.776   7.759 -0.0735 -0.1247 -0.4508
 2077SOL    HW1 7425   8.503   7.710   7.696  1.6223 -0.7928 -0.5993
 2077SOL    HW2 7426   8.461   7.782   7.823 -0.6633 -1.4114 -0.9577
 2078SOL     OW 7427   4.111   1.633   7.717  0.1762 -0.6649 -0.5568
 2078SOL    HW1 7428   4.179   1.575   7.751  0.4221 -0.2604 -0.3429
 2078SOL    HW2 7429   4.029   1.584   7.729  0.3940 -1.0190 -0.5082
 2079SOL     OW 7430   3.993   7.493   0.127  0.0861  0.3331 -0.1230
 2079SOL    HW1 7431   3.916   7.436   0.125  0.0125  0.4347 -0.2586
 2079SOL    HW2 7432   3.970   7.562   0.188  0.6788 -0.4720  1.0447
 2080SOL     OW 7433   5.669   7.057   8.426 -0.5362 -0.8371 -0.3389
 2080SOL    HW1 7434   5.692   7.001   8.500  2.7979  0.6889 -0.0340
 2080SOL    HW2 7435   5.590   7.104   8.455 -0.0852 -1.2440  1.7018
 2081SOL     OW 7436   4.004   6.374   0.914 -0.3339  0.1045 -0.8043
 2081SOL    HW1 7437   3.950   6.422   0.976 -0.4523 -0.9260 -0.0685
 2081SOL    HW2 7438   3.971   6.398   0.828  0.9674  2.9407 -0.6231
 2082SOL     OW 7439   0.689   0.827   0.396 -0.1119 -0.1154 -0.4322
 2082SOL    HW1 7440   0.654   0.754   0.345 -2.3641  1.2665 -1.0334
 2082SOL    HW2 7441   0.626   0.839   0.467  1.1533  0.1690  0.6808
 2083SOL     OW 7442   7.685   7.126   6.319 -0.6879 -0.1280  0.0147
 2083SOL    HW1 7443   7.624   7.168   6.379 -1.7420 -1.4377 -0.0698
 2083SOL    HW2 7444   7.638   7.124   6.235  0.2678  0.5706 -0.5539
 2084SOL     OW 7445   7.566   2.472   5.078  0.4995 -0.0933  0.7672
 2084SOL    HW1 7446   7.523   2.511   5.154  0.3960  1.4030 -0.0152
 2084SOL    HW2 7447   7.639   2.530   5.059  0.6379 -0.5467 -0.1506
 2085SOL     OW 7448   6.434   5.038   4.499  0.3152  0.6823  0.2860
 2085SOL    HW1 7449   6.381   5.104   4.543 -0.4259 -0.1956  0.7622
 2085SOL    HW2 7450   6.431   5.062   4.406 -1.7974  0.1266  0.1399
 2086SOL     OW 7451   1.538   4.502   6.752 -0.4264 -0.1762  0.1048
 2086SOL    HW1 7452   1.601   4.573   6.765 -0.9430  0.4045 -0.4289
 2086SOL    HW2 7453   1.579   4.444   6.688 -0.5984  0.4169 -0.5510
 2087SOL     OW 7454   7.116   0.470   5.986  0.4148 -0.4190 -0.3154
 2087SOL    HW1 7455   7.106   0.377   5.967 -0.8343 -0.6103  1.0822
 2087SOL    HW2 7456   7.062   0.514   5.920 -2.6705 -0.9821  1.6235
 2088SOL     OW 7457   0.531   6.773   7.681  0.3083  0.6380  0.0965
 2088SOL    HW1 7458   0.508   6.808   7.595 -0.1047  2.9142  1.0683
 2088SOL    HW2 7459   0.613   6.725   7.666  0.9251  2.0452 -1.3585
 2089SOL     OW 7460   7.534   4.095   8.098 -0.2545  0.0992  0.2015
 2089SOL    HW1 7461   7.492   4.155   8.159  0.2234  0.2942  0.3493
 2089SOL    HW2 7462   7.628   4.102   8.119 -0.1828 -0.6062  0.1416
 2090SOL     OW 7463   5.891   2.084   8.313  0.1892 -0.0453  0.0681
 2090SOL    HW1 7464   5.939   2.013   8.355  0.5172  0.0538 -0.1398
 2090SOL    HW2 7465   5.826   2.110   8.378  2.0883  1.5749  1.4325
 2091SOL     OW 7466   5.434   6.044   3.698  0.2982 -0.4268  0.2410
 2091SOL    HW1 7467   5.498   6.008   3.636 -0.9088 -0.1512 -1.2270
 2091SOL    HW2 7468   5.387   5.968   3.732  0.1601 -0.5090 -0.1243
 2092SOL     OW 7469   3.301   6.259   2.681  0.2824 -0.1086 -0.1572
 2092SOL    HW1 7470   3.260   6.290   2.762 -0.8697  2.6049 -1.6530
 2092SOL    HW2 7471   3.228   6.239   2.623  1.0866 -2.4074 -0.4795
 2093SOL     OW 7472   7.932   7.392   5.104  0.1657  0.2940 -0.4000
 2093SOL    HW1 7473   7.925   7.459   5.172  1.2103  2.6205 -2.4118
 2093SOL    HW2 7474   7.898   7.312   5.145  0.9437  1.4703  2.8779
 2094SOL     OW 7475   5.976   4.274   5.854 -0.3076  0.1568 -0.8581
 2094SOL    HW1 7476   5.983   4.323   5.772 -0.1921 -0.7785 -1.4169
 2094SOL    HW2 7477   6.047   4.210   5.851  0.8685  1.2923  0.8210
 2095SOL     OW 7478   1.670   2.794   7.791  0.0755  0.1192  0.7741
 2095SOL    HW1 7479   1.717   2.715   7.767 -0.4511 -0.3705  1.3279
 2095SOL    HW2 7480   1.604   2.804   7.721  1.6499  1.4194 -0.6153
 2096SOL     OW 7481   6.391   2.385   2.031  0.0725  0.0589  0.0372
 2096SOL    HW1 7482   6.439   2.334   1.966 -0.8263  0.1647 -0.7171
 2096SOL    HW2 7483   6.449   2.386   2.108  0.6029 -1.1017 -0.3335
 2097SOL     OW 7484   1.775   2.732   0.514 -0.0571  0.3305  0.5737
 2097SOL    HW1 7485   1.793   2.638   0.522 -0.5019  0.1098 -0.7895
 2097SOL    HW2 7486   1.770   2.748   0.420 -1.3642  1.4468  0.7953
 2098SOL     OW 7487   8.093   2.670   6.426  0.0574 -0.3454  0.5460
 2098SOL    HW1 7488   8.062   2.746   6.476 -1.3592  0.1114 -0.9429
 2098SOL    HW2 7489   8.040   2.597   6.457 -1.1620  0.0302 -0.5221
 2099SOL     OW 7490   1.691   4.069   5.986 -0.1420  0.3241 -0.2689
 2099SOL    HW1 7491   1.772   4.098   6.028 -0.6596  1.4965 -0.0247
 2099SOL    HW2 7492   1.719   4.004   5.922  1.1395  1.4502 -0.9099
 2100SOL     OW 7493   6.842   1.789   7.488  0.1047 -0.1435 -0.0768
 2100SOL    HW1 7494   6.897   1.712   7.473 -1.8245 -1.9933  1.6838
 2100SOL    HW2 7495   6.855   1.810   7.580 -0.5886  0.6876 -0.1628
 2101SOL     OW 7496   5.705   1.084   7.538  0.2769  0.2275  0.0529
 2101SOL    HW1 7497   5.673   1.088   7.628  2.0278  0.1875  0.7276
 2101SOL    HW2 7498   5.791   1.125   7.542  1.2766 -1.6083 -1.1504
 2102SOL     OW 7499   3.606   0.543   0.372  0.6191 -0.5909  0.2321
 2102SOL    HW1 7500   3.575   0.484   0.440 -0.2156  0.0387  0.4086
 2102SOL    HW2 7501   3.540   0.612   0.367  1.1000 -0.1680 -0.6209
 2103SOL     OW 7502   8.434   5.630   0.987  0.2397 -0.7922  0.4565
 2103SOL    HW1 7503   8.517   5.587   1.011  0.0453 -1.8551 -0.6831
 2103SOL    HW2 7504   8.367   5.565   1.009 -0.4556  0.5233  2.5411
 2104SOL     OW 7505   7.971   3.256   8.102 -0.3784  0.1966  0.0981
 2104SOL    HW1 7506   7.915   3.241   8.026  0.6307  1.1085 -0.8543
 2104SOL    HW2 7507   8.040   3.190   8.094 -0.5646 -0.0590  0.5420
 2105SOL     OW 7508   7.329   6.437   7.680 -0.3258 -0.2550  0.4847
 2105SOL    HW1 7509   7.329   6.509   7.742  0.0129 -0.7058  1.0159
 2105SOL    HW2 7510   7.386   6.371   7.719 -1.6575 -1.3476  0.6496
 2106SOL     OW 7511   3.743   8.253   1.113 -0.5695 -0.0705 -0.1405
 2106SOL    HW1 7512   3.761   8.245   1.019  0.8849  1.1503 -0.0060
 2106SOL    HW2 7513   3.727   8.164   1.142 -0.4235 -0.5424 -1.4432
 2107SOL     OW 7514   5.460   3.257   4.880  0.2504 -0.6192  0.3171
 2107SOL    HW1 7515   5.489   3.333   4.930 -0.1843  0.6599 -1.2559
 2107SOL    HW2 7516   5.421   3.199   4.945  0.9640  0.3117  1.6284
 2108SOL     OW 7517   5.355   8.241   8.335  0.8435 -0.5548 -0.3708
 2108SOL    HW1 7518   5.322   8.218   8.422 -0.3561  0.8995 -0.3938
 2108SOL    HW2 7519   5.413   8.316   8.350  0.3362 -0.0529 -0.8373
 2109SOL     OW 7520   7.676   1.665   6.954 -0.5498 -0.2809 -0.5102
 2109SOL    HW1 7521   7.690   1.576   6.920 -0.9771 -0.1078 -1.1584
 2109SOL    HW2 7522   7.751   1.715   6.920  0.4352 -0.6735  0.9751
 2110SOL     OW 7523   6.971   0.380   7.688  0.4103 -0.6590  0.6701
 2110SOL    HW1 7524   6.879   0.406   7.677  0.4174 -0.5872  0.7778
 2110SOL    HW2 7525   7.002   0.432   7.762  0.2643 -1.3823  1.2500
 2111SOL     OW 7526   2.889   4.224   1.033 -0.5677 -0.1917  0.6001
 2111SOL    HW1 7527   2.892   4.132   1.006 -2.6250 -0.2765  0.5013
 2111SOL    HW2 7528   2.914   4.273   0.954 -1.4580 -0.6196  0.0350
 2112SOL     OW 7529   5.342   6.746   6.515 -0.4200  0.5543  0.3981
 2112SOL    HW1 7530   5.327   6.717   6.605 -1.2097  1.1936  0.4784
 2112SOL    HW2 7531   5.376   6.835   6.523 -0.2770  0.5328  0.0641
 2113SOL     OW 7532   5.454   1.008   5.706 -0.9381  0.6305 -0.0431
 2113SOL    HW1 7533   5.518   1.069   5.669 -0.1343  0.3210  0.7833
 2113SOL    HW2 7534   5.497   0.975   5.785 -1.8704 -0.0746  0.1766
 2114SOL     OW 7535   7.116   4.312   4.336  0.2493  0.5930  0.3940
 2114SOL    HW1 7536   7.061   4.271   4.402 -0.3504  0.1205 -0.3785
 2114SOL    HW2 7537   7.055   4.364   4.283  0.5469  0.1436 -0.4086
 2115SOL     OW 7538   4.498   7.367   2.171  0.0764  0.4473  0.1560
 2115SOL    HW1 7539   4.508   7.438   2.235  0.6998 -0.5935  1.2674
 2115SOL    HW2 7540   4.568   7.381   2.108  0.2798  0.7503  0.4425
 2116SOL     OW 7541   7.226   4.147   3.064  0.4322  0.3387  0.0506
 2116SOL    HW1 7542   7.193   4.209   3.129  0.9350 -0.5441  1.1820
 2116SOL    HW2 7543   7.236   4.065   3.112  1.2693 -0.2183 -1.0321
 2117SOL     OW 7544   1.355   7.554   1.711  0.2719 -0.3709 -0.0227
 2117SOL    HW1 7545   1.380   7.643   1.687  1.1428 -0.8470 -0.9985
 2117SOL    HW2 7546   1.434   7.515   1.747  0.0181 -0.8729  0.0070
 2118SOL     OW 7547   2.411   6.433   7.185  0.0001 -0.3812  0.3115
 2118SOL    HW1 7548   2.438   6.475   7.103 -2.0581 -1.0586 -0.7805
 2118SOL    HW2 7549   2.385   6.506   7.242  2.1841  0.1434  0.7040
 2119SOL     OW 7550   5.901   2.542   2.955 -0.6524  1.2373 -0.1353
 2119SOL    HW1 7551   5.840   2.542   3.029  0.5792  0.5357  0.9230
 2119SOL    HW2 7552   5.973   2.599   2.984  1.9973 -2.4041  1.1820
 2120SOL     OW 7553   7.844   5.881   3.372 -0.2517  0.3739 -0.6007
 2120SOL    HW1 7554   7.796   5.807   3.409 -0.2940  1.5660  1.8772
 2120SOL    HW2 7555   7.781   5.953   3.372  0.4421  0.9892 -0.9197
 2121SOL     OW 7556   3.629   7.756   3.574 -0.2176  0.0690 -0.0166
 2121SOL    HW1 7557   3.719   7.785   3.562 -0.4769  0.4512 -1.2038
 2121SOL    HW2 7558   3.636   7.665   3.601  0.5560  0.5564  1.6068
 2122SOL     OW 7559   4.126   7.960   7.760  0.3085  0.1097  0.4211
 2122SOL    HW1 7560   4.148   7.929   7.848 -0.6526 -0.2540  0.5384
 2122SOL    HW2 7561   4.060   7.898   7.728 -0.0007  0.7541 -0.2138
 2123SOL     OW 7562   0.355   4.999   3.440  0.0139 -0.4228 -0.1769
 2123SOL    HW1 7563   0.314   5.047   3.367 -0.1737  0.9416  0.7971
 2123SOL    HW2 7564   0.402   4.927   3.397 -1.6701 -0.8107 -1.4964
 2124SOL     OW 7565   1.765   4.700   1.058  0.5410 -0.1269 -0.5178
 2124SOL    HW1 7566   1.672   4.711   1.077  0.7288 -0.3404  0.6053
 2124SOL    HW2 7567   1.778   4.605   1.056  0.7555 -0.0979 -0.5693
 2125SOL     OW 7568   5.500   4.095   6.078 -0.1806 -0.0226  0.7432
 2125SOL    HW1 7569   5.455   4.178   6.090  1.4345  1.0431 -0.2998
 2125SOL    HW2 7570   5.453   4.034   6.136 -2.1295  1.3012  0.6344
 2126SOL     OW 7571   4.514   6.089   4.965 -0.2630  0.5527  0.3630
 2126SOL    HW1 7572   4.437   6.142   4.942 -0.6363  0.7807  2.0396
 2126SOL    HW2 7573   4.550   6.130   5.043  1.8609  0.6975 -0.6210
 2127SOL     OW 7574   1.079   1.831   7.282 -0.4176 -0.5509  0.4566
 2127SOL    HW1 7575   1.118   1.744   7.274 -2.1352 -1.1870 -2.1356
 2127SOL    HW2 7576   1.112   1.879   7.206  0.1180  0.9652  1.5894
 2128SOL     OW 7577   2.153   5.112   6.590 -0.4237 -0.2126 -0.4333
 2128SOL    HW1 7578   2.088   5.043   6.587  0.2941 -0.8948 -0.7712
 2128SOL    HW2 7579   2.116   5.182   6.535 -0.6104 -0.8278 -1.1132
 2129SOL     OW 7580   2.054   1.616   5.645 -0.0563 -0.1872 -0.1474
 2129SOL    HW1 7581   1.985   1.677   5.619  1.2888  0.8668 -1.4231
 2129SOL    HW2 7582   2.106   1.604   5.565  2.3931  0.6474  1.2364
 2130SOL     OW 7583   4.941   5.430   8.519 -0.0394 -0.0124 -0.3778
 2130SOL    HW1 7584   4.932   5.371   8.444  0.2324 -1.1802  0.4622
 2130SOL    HW2 7585   4.859   5.479   8.521 -0.3043 -0.4077 -1.0740
 2131SOL     OW 7586   0.555   5.849   7.892 -0.1921 -0.0282  0.2301
 2131SOL    HW1 7587   0.541   5.905   7.969  0.6870  1.8378 -0.8902
 2131SOL    HW2 7588   0.494   5.883   7.827 -0.0145 -0.7426 -0.3243
 2132SOL     OW 7589   3.751   8.068   6.826  0.3297  0.0848 -0.4455
 2132SOL    HW1 7590   3.709   8.123   6.892 -1.3532 -1.2093 -0.3613
 2132SOL    HW2 7591   3.834   8.043   6.865  0.1023  0.7037  0.4760
 2133SOL     OW 7592   1.302   2.422   5.329 -0.2363 -0.1073  0.3950
 2133SOL    HW1 7593   1.355   2.502   5.336  1.2677 -0.9934 -0.2989
 2133SOL    HW2 7594   1.235   2.443   5.264  1.5762 -0.0812 -1.6015
 2134SOL     OW 7595   2.474   3.519   0.694 -0.6306  0.0897  0.2013
 2134SOL    HW1 7596   2.555   3.468   0.699  0.7672  2.1407 -0.0065
 2134SOL    HW2 7597   2.459   3.547   0.784 -1.4771 -0.7643  0.3404
 2135SOL     OW 7598   3.428   0.926   5.524  0.1825 -0.0113  0.3400
 2135SOL    HW1 7599   3.457   0.898   5.437 -0.6177 -0.3419  0.1714
 2135SOL    HW2 7600   3.368   0.857   5.552  0.3859  0.1278  1.1300
 2136SOL     OW 7601   2.316   6.029   6.741  0.3545  0.5057 -0.3367
 2136SOL    HW1 7602   2.308   6.117   6.702 -0.7591  0.1881 -0.8631
 2136SOL    HW2 7603   2.371   6.042   6.818  1.6583  1.3628 -1.3618
 2137SOL     OW 7604   6.173   0.745   2.696  0.3552 -0.6744 -0.2721
 2137SOL    HW1 7605   6.108   0.746   2.765  0.4398 -0.0553 -0.1931
 2137SOL    HW2 7606   6.234   0.676   2.721  0.3698 -0.4733  0.2562
 2138SOL     OW 7607   4.527   1.112   0.546 -0.2326  0.2524  0.2514
 2138SOL    HW1 7608   4.447   1.135   0.593 -0.5219 -0.6469  0.2194
 2138SOL    HW2 7609   4.514   1.021   0.520 -0.3463  0.8700 -2.0818
 2139SOL     OW 7610   2.457   3.903   3.960 -0.2004 -0.3780  0.2878
 2139SOL    HW1 7611   2.522   3.864   4.018  0.4286 -0.6839 -0.6072
 2139SOL    HW2 7612   2.503   3.916   3.877 -1.1011 -0.0127 -0.1690
 2140SOL     OW 7613   1.872   6.032   1.631  0.4494 -0.3213 -0.0021
 2140SOL    HW1 7614   1.887   5.955   1.576  0.7663 -0.7872  0.7293
 2140SOL    HW2 7615   1.855   5.997   1.718 -1.6025  0.3324 -0.0876
 2141SOL     OW 7616   7.132   6.151   1.837 -0.7373  0.2472  0.1651
 2141SOL    HW1 7617   7.162   6.060   1.848 -0.8703  0.4817  3.9857
 2141SOL    HW2 7618   7.210   6.204   1.850 -0.9407  0.7227 -0.5185
 2142SOL     OW 7619   1.153   7.128   4.297 -0.1702  0.1390  0.2811
 2142SOL    HW1 7620   1.212   7.106   4.225  0.2757 -0.6135  0.8707
 2142SOL    HW2 7621   1.199   7.196   4.346  0.1803 -0.4009  0.7030
 2143SOL     OW 7622   6.040   3.996   8.098 -0.0555 -0.0508 -0.0354
 2143SOL    HW1 7623   5.987   3.922   8.125  0.6429 -0.2358  0.8766
 2143SOL    HW2 7624   6.054   4.046   8.178  0.8080  0.2062 -0.3332
 2144SOL     OW 7625   8.288   7.581   8.444 -0.2393 -0.2757 -0.4405
 2144SOL    HW1 7626   8.241   7.665   8.436 -0.7065 -0.2563  1.8249
 2144SOL    HW2 7627   8.380   7.605   8.444 -0.3827  0.3802  1.0666
 2145SOL     OW 7628   5.896   2.890   2.071  0.6224 -0.1171  0.0890
 2145SOL    HW1 7629   5.945   2.969   2.095  1.8271 -1.1593  1.1867
 2145SOL    HW2 7630   5.809   2.905   2.109  0.2549  1.3955 -1.1977
 2146SOL     OW 7631   7.144   8.316   4.008 -0.2115  0.2896  0.5468
 2146SOL    HW1 7632   7.212   8.267   4.053 -0.1988  0.5837  0.8529
 2146SOL    HW2 7633   7.183   8.341   3.924 -0.2289 -0.2432  0.3782
 2147SOL     OW 7634   6.051   2.071   4.620  0.1087 -0.0061  0.4021
 2147SOL    HW1 7635   6.113   2.061   4.548  1.2567 -0.7538  1.4518
 2147SOL    HW2 7636   6.076   2.154   4.661 -1.4262  1.1322 -0.8278
 2148SOL     OW 7637   6.460   3.807   2.314 -0.3424 -0.5655 -0.3919
 2148SOL    HW1 7638   6.502   3.743   2.257 -0.4582 -0.2843 -0.7963
 2148SOL    HW2 7639   6.399   3.755   2.367 -1.6812 -0.6034 -1.8860
 2149SOL     OW 7640   3.083   2.081   6.043  0.1446 -0.4608  0.4183
 2149SOL    HW1 7641   3.035   2.121   6.116 -2.9347 -0.1359 -1.5879
 2149SOL    HW2 7642   3.027   2.009   6.014 -0.4719  1.3036 -3.4994
 2150SOL     OW 7643   7.483   4.113   6.278 -0.5419  0.4715 -0.7549
 2150SOL    HW1 7644   7.577   4.124   6.294 -0.3840 -1.0582 -0.5295
 2150SOL    HW2 7645   7.478   4.055   6.203 -1.3153  0.4798 -0.7141
 2151SOL     OW 7646   4.690   8.262   1.040 -0.1052 -0.0389 -0.8519
 2151SOL    HW1 7647   4.664   8.249   0.949  0.9042 -0.9042 -1.0445
 2151SOL    HW2 7648   4.785   8.251   1.039  0.2440  2.2924 -0.0821
 2152SOL     OW 7649   3.347   1.279   5.750  0.1223 -0.0118  0.3492
 2152SOL    HW1 7650   3.308   1.366   5.763  1.4707  0.9005 -1.3456
 2152SOL    HW2 7651   3.381   1.255   5.837 -0.2727  1.1454  0.8445
 2153SOL     OW 7652   7.635   0.188   2.198 -0.3039 -0.2863  0.0897
 2153SOL    HW1 7653   7.550   0.147   2.178 -1.3413  1.5894  0.4931
 2153SOL    HW2 7654   7.689   0.166   2.123 -1.3072 -1.0695 -0.4386
 2154SOL     OW 7655   8.437   7.456   0.462  0.3578  0.0278  0.2170
 2154SOL    HW1 7656   8.452   7.547   0.434  0.5979 -0.5851 -1.7933
 2154SOL    HW2 7657   8.454   7.457   0.556  1.8617  1.7449 -0.0102
 2155SOL     OW 7658   2.515   5.701   0.777 -0.5926  0.0904  0.3855
 2155SOL    HW1 7659   2.490   5.730   0.690  1.8727  0.8529 -0.1604
 2155SOL    HW2 7660   2.583   5.635   0.762 -0.3722 -0.0280  1.7287
 2156SOL     OW 7661   7.982   4.349   1.524 -0.2546 -0.2449  0.1542
 2156SOL    HW1 7662   7.977   4.409   1.449 -1.5590 -0.0480  0.3815
 2156SOL    HW2 7663   8.073   4.356   1.553 -0.5977  2.5742  0.9093
 2157SOL     OW 7664   0.308   7.384   0.014  0.2078  0.0518 -0.0966
 2157SOL    HW1 7665   0.267   7.302  -0.012  1.0353 -0.5501  0.4782
 2157SOL    HW2 7666   0.394   7.382  -0.027 -0.1270  1.0922 -0.8990
 2158SOL     OW 7667   0.189   2.842   4.754  0.0129  0.0403 -0.5112
 2158SOL    HW1 7668   0.153   2.929   4.739 -0.0007  0.5012  1.8333
 2158SOL    HW2 7669   0.246   2.826   4.678 -1.0254  1.4858 -1.6612
 2159SOL     OW 7670   0.370   3.592   0.963  0.0090 -0.0444  0.1947
 2159SOL    HW1 7671   0.416   3.535   0.901 -1.5364 -1.1489  0.0103
 2159SOL    HW2 7672   0.406   3.568   1.048 -0.2689 -0.9444  0.0638
 2160SOL     OW 7673   0.862   4.323   1.637  0.0856  0.0453 -0.1004
 2160SOL    HW1 7674   0.894   4.233   1.631 -2.2739 -0.8169 -1.2902
 2160SOL    HW2 7675   0.856   4.340   1.731  1.1480 -0.7916  0.1452
 2161SOL     OW 7676   2.579   6.553   1.319  0.2565 -0.0799  0.1608
 2161SOL    HW1 7677   2.515   6.623   1.332 -0.0634 -0.0993 -1.1655
 2161SOL    HW2 7678   2.532   6.473   1.342  0.8307  0.1481  2.3552
 2162SOL     OW 7679   8.368   3.459   4.565 -0.8893 -0.4565  0.5745
 2162SOL    HW1 7680   8.334   3.458   4.476 -0.4568  1.0482  0.3702
 2162SOL    HW2 7681   8.441   3.397   4.563 -0.4347  0.0873 -0.3173
 2163SOL     OW 7682   3.528   1.144   7.274 -0.0716  0.0261 -0.2489
 2163SOL    HW1 7683   3.509   1.175   7.363 -0.2679 -1.3062  0.1924
 2163SOL    HW2 7684   3.621   1.162   7.262 -0.3053  1.3649 -0.2685
 2164SOL     OW 7685   6.929   2.525   1.188  0.3756  0.1924  0.2237
 2164SOL    HW1 7686   6.964   2.525   1.277 -0.3586  0.0871  0.5214
 2164SOL    HW2 7687   6.935   2.616   1.159 -1.3615  0.6538  1.1964
 2165SOL     OW 7688   2.104   6.768   2.079  0.0939 -0.2585 -0.3299
 2165SOL    HW1 7689   2.132   6.778   1.988 -2.2780  0.9524 -0.9994
 2165SOL    HW2 7690   2.019   6.725   2.073 -0.4326  0.5047  1.2574
 2166SOL     OW 7691   5.835   0.711   5.455  0.2582  0.5346  0.1152
 2166SOL    HW1 7692   5.858   0.746   5.542  0.7955  0.8771 -0.1566
 2166SOL    HW2 7693   5.877   0.624   5.453 -0.0139  0.3976  0.3132
 2167SOL     OW 7694   0.966   6.469   7.028  0.4943 -0.0741 -0.2440
 2167SOL    HW1 7695   0.980   6.556   7.066 -1.4955 -0.3668  1.2821
 2167SOL    HW2 7696   1.038   6.459   6.965  2.2056  1.6506  1.3092
 2168SOL     OW 7697   6.592   5.228   0.558 -0.0137 -0.4657  0.0788
 2168SOL    HW1 7698   6.570   5.143   0.519  0.8523  0.0755 -1.7307
 2168SOL    HW2 7699   6.521   5.286   0.532  0.2881 -0.2283 -0.2284
 2169SOL     OW 7700   4.986   0.163   5.431 -0.5451  0.5412 -0.0899
 2169SOL    HW1 7701   4.989   0.182   5.337 -2.1893 -0.7188 -0.4491
 2169SOL    HW2 7702   4.999   0.068   5.437 -0.3014  0.6307  0.9720
 2170SOL     OW 7703   7.155   5.206   6.363 -0.1671  0.0740 -0.0681
 2170SOL    HW1 7704   7.062   5.228   6.367 -0.2963 -0.5721  0.9431
 2170SOL    HW2 7705   7.192   5.268   6.301 -1.4636 -0.3179 -1.2888
 2171SOL     OW 7706   1.505   6.927   3.137  0.2136  0.2967  0.0281
 2171SOL    HW1 7707   1.579   6.981   3.109  0.1677  0.1081 -0.4749
 2171SOL    HW2 7708   1.501   6.857   3.072 -1.5953  1.3537 -1.1159
 2172SOL     OW 7709   0.615   2.713   5.383 -0.1745  0.1549 -0.3371
 2172SOL    HW1 7710   0.621   2.635   5.328  0.5474  1.3371 -2.0345
 2172SOL    HW2 7711   0.690   2.707   5.442 -0.2533 -0.5243 -0.2957
 2173SOL     OW 7712   0.789   1.139   7.098 -0.1418 -0.4186  0.2148
 2173SOL    HW1 7713   0.728   1.188   7.043  0.2276 -0.5907 -0.3570
 2173SOL    HW2 7714   0.736   1.069   7.136 -0.4621 -0.1324  0.2993
 2174SOL     OW 7715   4.661   2.420   2.575 -0.0564 -0.7209 -0.1599
 2174SOL    HW1 7716   4.646   2.473   2.496 -0.7336 -0.6620  0.0024
 2174SOL    HW2 7717   4.720   2.474   2.628  0.9903 -1.0750 -0.9305
 2175SOL     OW 7718   6.602   1.186   4.393 -0.0018  1.2131 -0.1267
 2175SOL    HW1 7719   6.522   1.196   4.341  0.6024 -0.2083 -1.4373
 2175SOL    HW2 7720   6.575   1.204   4.483 -2.3036 -1.0952 -0.2087
 2176SOL     OW 7721   4.284   7.377   2.850  0.2705  0.1004 -0.6544
 2176SOL    HW1 7722   4.229   7.452   2.825 -1.8560 -0.4061  1.9739
 2176SOL    HW2 7723   4.372   7.413   2.858 -0.5001  2.0910 -0.4861
 2177SOL     OW 7724   5.052   4.801   6.977  0.5179 -0.0248 -0.9136
 2177SOL    HW1 7725   4.973   4.780   7.026  0.2603  1.2300 -0.7456
 2177SOL    HW2 7726   5.087   4.717   6.950  0.9039 -0.8244  1.7625
 2178SOL     OW 7727   8.440   1.982   5.835  0.1760 -0.2887 -0.3122
 2178SOL    HW1 7728   8.409   1.955   5.921  2.0025 -1.5493 -0.0106
 2178SOL    HW2 7729   8.426   1.906   5.779 -2.2331  0.9471 -1.5305
 2179SOL     OW 7730   3.936   7.776   1.209  0.1828 -0.0831  0.0084
 2179SOL    HW1 7731   3.845   7.781   1.178  0.2307  0.7670 -0.0118
 2179SOL    HW2 7732   3.984   7.738   1.135 -0.5464 -3.0808  0.9141
 2180SOL     OW 7733   0.132   2.055   5.637  0.4324 -0.5817 -0.3066
 2180SOL    HW1 7734   0.220   2.019   5.635  1.1894  1.1976 -1.9091
 2180SOL    HW2 7735   0.078   1.990   5.593  1.1251 -1.2104 -0.2478
 2181SOL     OW 7736   0.153   8.169   1.175 -0.3842 -0.4517  0.3724
 2181SOL    HW1 7737   0.069   8.181   1.218 -0.7363  0.4411 -0.5317
 2181SOL    HW2 7738   0.216   8.162   1.247 -0.9721  0.8688  1.0520
 2182SOL     OW 7739   6.878   3.168   7.065  0.1679 -0.2366 -0.3040
 2182SOL    HW1 7740   6.950   3.186   7.004  0.0471 -1.8436 -0.9787
 2182SOL    HW2 7741   6.895   3.079   7.097 -0.6404 -0.0164  0.7853
 2183SOL     OW 7742   3.077   2.800   2.761  0.5652 -0.3711  0.4813
 2183SOL    HW1 7743   3.025   2.804   2.841 -0.4027 -0.7140 -0.1143
 2183SOL    HW2 7744   3.013   2.788   2.691  1.5512 -2.3508 -0.1461
 2184SOL     OW 7745   3.538   2.092   1.081  0.0834  0.4673 -0.8673
 2184SOL    HW1 7746   3.567   2.176   1.116  0.0208  0.0795  0.1604
 2184SOL    HW2 7747   3.572   2.090   0.992  0.8686  1.1951 -0.5994
 2185SOL     OW 7748   3.745   2.617   6.882 -0.7135 -0.4066  0.1175
 2185SOL    HW1 7749   3.819   2.673   6.859 -1.2796  0.3795  0.1492
 2185SOL    HW2 7750   3.774   2.569   6.959 -0.0631 -0.4722 -0.1624
 2186SOL     OW 7751   8.140   6.027   2.546  0.8403 -0.3724 -0.6820
 2186SOL    HW1 7752   8.104   6.018   2.635  0.7915  0.9538 -0.5496
 2186SOL    HW2 7753   8.064   6.017   2.489  1.0760 -2.7376 -0.7110
 2187SOL     OW 7754   1.212   6.012   1.245  0.5735 -0.1296 -0.3439
 2187SOL    HW1 7755   1.216   5.931   1.194  0.4225  0.9068 -2.0421
 2187SOL    HW2 7756   1.244   5.986   1.332  3.8456 -1.3099 -1.7471
 2188SOL     OW 7757   7.037   2.606   2.241  0.3046 -0.4163  0.4531
 2188SOL    HW1 7758   7.108   2.546   2.266  0.5052 -0.3279  0.1021
 2188SOL    HW2 7759   7.082   2.680   2.200 -0.0037 -0.4187  0.1089
 2189SOL     OW 7760   2.370   4.268   5.056 -0.1382 -0.4647 -0.3481
 2189SOL    HW1 7761   2.324   4.208   5.115 -1.1746 -0.2598 -0.9214
 2189SOL    HW2 7762   2.370   4.352   5.103 -0.5455 -0.4132 -0.4386
 2190SOL     OW 7763   2.228   0.825   2.602  0.4449 -0.2128  0.0656
 2190SOL    HW1 7764   2.238   0.847   2.694 -2.8704  1.4078  0.1912
 2190SOL    HW2 7765   2.171   0.748   2.601 -1.4841  1.1249 -0.5211
 2191SOL     OW 7766   8.207   2.726   5.827  0.1406 -0.6329  0.0488
 2191SOL    HW1 7767   8.252   2.810   5.818 -1.4627  0.3012  0.3635
 2191SOL    HW2 7768   8.178   2.723   5.918 -0.4844 -1.1668 -0.1506
 2192SOL     OW 7769   5.873   3.621   0.112 -0.1390  0.8236  0.0223
 2192SOL    HW1 7770   5.886   3.706   0.155  1.7451  0.2439  0.7171
 2192SOL    HW2 7771   5.882   3.558   0.183 -0.6135 -0.0048 -0.6452
 2193SOL     OW 7772   4.892   1.338   7.489 -0.2600 -0.8677  0.2802
 2193SOL    HW1 7773   4.807   1.366   7.455 -0.6493 -0.3499  1.6129
 2193SOL    HW2 7774   4.872   1.268   7.550  0.2580 -0.6605  0.6948
 2194SOL     OW 7775   4.325   0.365   2.377 -0.5368 -0.1731 -0.0213
 2194SOL    HW1 7776   4.415   0.396   2.388 -1.6328  3.9462 -1.1372
 2194SOL    HW2 7777   4.286   0.376   2.464 -0.6386  0.6589 -0.1653
 2195SOL     OW 7778   5.896   3.132   7.504  0.4853 -0.4687  0.0112
 2195SOL    HW1 7779   5.905   3.037   7.498  0.5613 -0.4017 -1.2386
 2195SOL    HW2 7780   5.986   3.165   7.496  0.6612 -0.3256  2.0585
 2196SOL     OW 7781   3.765   5.895   7.730 -0.0441 -0.4518 -0.3187
 2196SOL    HW1 7782   3.807   5.934   7.653  3.6910 -2.0746  0.6877
 2196SOL    HW2 7783   3.751   5.803   7.706  0.1276 -0.7179  0.5723
 2197SOL     OW 7784   4.409   4.951   0.402 -0.2104  0.0710 -0.2149
 2197SOL    HW1 7785   4.347   4.964   0.475 -0.6542 -1.5848 -0.2734
 2197SOL    HW2 7786   4.359   4.975   0.324 -0.5600 -0.5932 -0.1990
 2198SOL     OW 7787   3.889   3.934   3.309  0.0918  0.3486  0.4829
 2198SOL    HW1 7788   3.884   4.027   3.332 -0.4439  0.5276 -0.3172
 2198SOL    HW2 7789   3.801   3.913   3.277  0.1410 -0.4941  0.8780
 2199SOL     OW 7790   3.674   0.643   0.102  0.9902 -0.1413  0.3947
 2199SOL    HW1 7791   3.634   0.724   0.136  2.4720  1.1237 -0.7792
 2199SOL    HW2 7792   3.656   0.578   0.170 -2.3959  0.4886  0.2924
 2200SOL     OW 7793   7.561   3.420   6.108  0.3639  0.1816  0.1557
 2200SOL    HW1 7794   7.577   3.512   6.092  0.6333  0.3061  1.0817
 2200SOL    HW2 7795   7.558   3.412   6.204 -1.0638 -0.5215  0.0929
 2201SOL     OW 7796   7.517   0.301   6.289  0.0303  0.0851  0.3138
 2201SOL    HW1 7797   7.433   0.336   6.320 -0.2660  0.9758 -1.3402
 2201SOL    HW2 7798   7.492   0.235   6.224  0.6059 -0.2861  0.4665
 2202SOL     OW 7799   6.068   4.423   4.544 -0.3318  0.6465  0.2965
 2202SOL    HW1 7800   6.101   4.382   4.464  0.8710  2.4746 -0.2235
 2202SOL    HW2 7801   5.978   4.447   4.525 -1.0556 -1.6246  0.6099
 2203SOL     OW 7802   7.992   6.388   6.003 -0.5222 -0.1070 -0.0635
 2203SOL    HW1 7803   8.023   6.392   5.912  0.9710 -0.3206  0.3938
 2203SOL    HW2 7804   8.070   6.411   6.055 -0.9503 -1.3882  1.2067
 2204SOL     OW 7805   3.890   2.073   5.677  0.4780 -0.3858 -1.0275
 2204SOL    HW1 7806   3.953   2.074   5.749  3.0727  0.2401 -3.1453
 2204SOL    HW2 7807   3.838   2.152   5.690  1.4977  0.1979 -0.3405
 2205SOL     OW 7808   1.799   5.333   8.330 -0.4024  0.0374  0.4423
 2205SOL    HW1 7809   1.847   5.298   8.255  0.3101  1.4061  0.2399
 2205SOL    HW2 7810   1.864   5.380   8.381 -1.1117  0.0876  1.3280
 2206SOL     OW 7811   7.803   4.750   6.204 -0.4165 -0.1758 -0.5934
 2206SOL    HW1 7812   7.794   4.843   6.181  2.3293  0.3970  0.3481
 2206SOL    HW2 7813   7.823   4.707   6.121  0.8442  0.5008 -0.6569
 2207SOL     OW 7814   1.096   6.378   7.705 -0.2656  0.7749  0.1239
 2207SOL    HW1 7815   1.110   6.318   7.778 -0.3251  1.0219  0.3389
 2207SOL    HW2 7816   1.018   6.428   7.730 -1.3987 -0.3862 -0.9181
 2208SOL     OW 7817   8.400   0.687   3.631 -0.2323 -0.4623 -0.6105
 2208SOL    HW1 7818   8.306   0.674   3.648  0.1413 -1.4310  0.9367
 2208SOL    HW2 7819   8.443   0.616   3.678  1.3968  1.1244  0.4316
 2209SOL     OW 7820   2.815   7.600   2.695  0.1673 -0.3765  0.6912
 2209SOL    HW1 7821   2.905   7.614   2.725  0.0470 -0.4139  1.0697
 2209SOL    HW2 7822   2.760   7.642   2.761 -0.0720  0.3326  0.0589
 2210SOL     OW 7823   6.786   2.549   8.269 -0.0535  0.1032 -0.2562
 2210SOL    HW1 7824   6.851   2.534   8.338 -0.7478 -0.6781  0.2477
 2210SOL    HW2 7825   6.736   2.626   8.298 -0.3161 -0.1990  0.0906
 2211SOL     OW 7826   2.996   7.078   3.046  0.2270 -0.6200  0.3239
 2211SOL    HW1 7827   3.059   7.133   3.093  1.4030  0.8953 -2.7504
 2211SOL    HW2 7828   2.937   7.141   3.003 -0.8192 -1.8932 -0.1621
 2212SOL     OW 7829   7.096   2.948   5.775  0.6230 -0.1551 -0.3415
 2212SOL    HW1 7830   7.109   2.872   5.831  0.5336  0.8799  1.1438
 2212SOL    HW2 7831   7.174   2.952   5.720 -0.2783 -2.4660 -1.9038
 2213SOL     OW 7832   0.693   2.566   0.976 -0.2558 -0.2151 -0.5264
 2213SOL    HW1 7833   0.689   2.528   0.888 -0.2191 -0.4480 -0.4284
 2213SOL    HW2 7834   0.732   2.652   0.963  0.9542 -0.7490 -0.5855
 2214SOL     OW 7835   4.751   2.735   5.150 -0.1389 -0.0526 -0.1199
 2214SOL    HW1 7836   4.831   2.781   5.128 -0.2174  0.0035 -0.2923
 2214SOL    HW2 7837   4.777   2.643   5.155 -0.3761 -0.2392 -1.8026
 2215SOL     OW 7838   7.279   6.278   0.360 -0.0638  0.0280 -0.4518
 2215SOL    HW1 7839   7.285   6.260   0.454  0.6481 -0.8719 -0.6579
 2215SOL    HW2 7840   7.275   6.374   0.354 -1.0306  0.0697  0.5317
 2216SOL     OW 7841   4.034   1.345   4.981 -0.0427  1.0773  0.0250
 2216SOL    HW1 7842   3.973   1.299   5.039  0.3954  0.2486 -0.1543
 2216SOL    HW2 7843   4.034   1.435   5.013 -1.4161  1.1206 -0.0244
 2217SOL     OW 7844   1.486   8.117   0.461 -0.1668 -0.3762  0.4630
 2217SOL    HW1 7845   1.576   8.148   0.473 -0.2200 -0.7108  1.8998
 2217SOL    HW2 7846   1.431   8.191   0.489 -0.3077 -0.7435  1.1927
 2218SOL     OW 7847   3.550   3.829   3.790 -0.0657  0.2562 -0.0575
 2218SOL    HW1 7848   3.552   3.735   3.775  0.7228  0.3170 -0.3972
 2218SOL    HW2 7849   3.600   3.866   3.717  0.1034  0.8919  0.3699
 2219SOL     OW 7850   1.605   2.833   4.292 -0.1578  0.5918 -0.5683
 2219SOL    HW1 7851   1.622   2.822   4.199 -0.3376  1.1921 -0.6782
 2219SOL    HW2 7852   1.671   2.779   4.336  1.8295  2.5401 -0.9753
 2220SOL     OW 7853   7.169   4.291   1.929  0.4869 -0.0227 -0.4957
 2220SOL    HW1 7854   7.169   4.387   1.931 -0.6489  0.0235 -1.5613
 2220SOL    HW2 7855   7.213   4.268   1.847 -1.7151 -0.2937 -1.6850
 2221SOL     OW 7856   0.207   6.397   4.333  0.3678 -0.1786  0.0639
 2221SOL    HW1 7857   0.183   6.420   4.244 -0.4185  1.5246  0.6771
 2221SOL    HW2 7858   0.160   6.460   4.388  2.4497  0.1684  1.5739
 2222SOL     OW 7859   1.961   4.943   3.542  0.1053 -0.3751 -0.2254
 2222SOL    HW1 7860   1.996   4.900   3.464  0.0782  1.6861 -1.4428
 2222SOL    HW2 7861   2.029   5.006   3.567 -1.2025  1.2243 -0.5383
 2223SOL     OW 7862   6.352   6.285   6.077 -0.0405  0.1157  0.8182
 2223SOL    HW1 7863   6.323   6.209   6.026 -0.9184  0.9447  0.0211
 2223SOL    HW2 7864   6.287   6.353   6.057  1.4241  1.4819  0.4674
 2224SOL     OW 7865   2.815   3.192   6.564 -0.1635  0.1781 -0.1145
 2224SOL    HW1 7866   2.777   3.129   6.625 -1.0335  1.5535  0.8264
 2224SOL    HW2 7867   2.751   3.198   6.493  0.0090 -0.1272 -0.2977
 2225SOL     OW 7868   1.895   5.953   3.475 -0.3597 -0.3510  0.2894
 2225SOL    HW1 7869   1.984   5.921   3.458 -0.9791 -2.3905  0.6300
 2225SOL    HW2 7870   1.867   5.906   3.553 -2.2086 -0.7816 -0.5737
 2226SOL     OW 7871   8.336   1.195   2.303  0.4623 -0.3120 -0.6092
 2226SOL    HW1 7872   8.299   1.115   2.340 -0.1470 -0.6765 -1.9691
 2226SOL    HW2 7873   8.292   1.265   2.351 -0.1884 -0.7730 -0.5168
 2227SOL     OW 7874   8.567   0.613   7.824 -0.1793 -0.7317 -0.2003
 2227SOL    HW1 7875   8.647   0.648   7.783 -2.0326  2.7767 -1.2674
 2227SOL    HW2 7876   8.555   0.667   7.903 -0.4425 -2.6684  1.1676
 2228SOL     OW 7877   2.164   7.180   7.996  0.5454 -0.4178  0.5197
 2228SOL    HW1 7878   2.242   7.132   8.026  0.2572 -0.9749  0.3803
 2228SOL    HW2 7879   2.197   7.240   7.930  0.8319 -0.7823  0.3281
 2229SOL     OW 7880   3.610   4.090   6.837 -0.9806  1.1359  0.2055
 2229SOL    HW1 7881   3.700   4.076   6.866 -0.8882 -1.3980 -0.9642
 2229SOL    HW2 7882   3.614   4.080   6.742 -2.1157  3.7441 -0.1833
 2230SOL     OW 7883   1.661   3.904   7.138 -0.2768  0.6099 -0.2966
 2230SOL    HW1 7884   1.720   3.842   7.181 -0.1127 -0.3797 -1.8816
 2230SOL    HW2 7885   1.580   3.855   7.126 -0.5377  1.0865 -0.5011
 2231SOL     OW 7886   3.398   4.724   7.248  0.0923  0.2569 -0.1684
 2231SOL    HW1 7887   3.490   4.701   7.265 -0.6471 -2.6200  0.4510
 2231SOL    HW2 7888   3.361   4.739   7.335 -0.5696 -1.0849 -0.1973
 2232SOL     OW 7889   4.925   4.452   8.182  0.3852  0.1335  0.1293
 2232SOL    HW1 7890   4.970   4.520   8.131 -0.9303  1.0290  0.1006
 2232SOL    HW2 7891   4.836   4.451   8.146  0.1410 -1.0042  0.7356
 2233SOL     OW 7892   1.703   5.484   7.963 -0.6664  0.4662  0.1360
 2233SOL    HW1 7893   1.675   5.570   7.993 -3.6134  0.0922 -1.1968
 2233SOL    HW2 7894   1.753   5.448   8.036  2.5984  4.0511 -0.0478
 2234SOL     OW 7895   5.162   4.418   7.249 -0.1652 -0.1482 -0.3494
 2234SOL    HW1 7896   5.192   4.339   7.204 -1.2469  0.3224 -1.9731
 2234SOL    HW2 7897   5.240   4.474   7.252  0.5590 -1.1766  0.6434
 2235SOL     OW 7898   6.974   4.470   1.230  0.4916  0.2859  0.3158
 2235SOL    HW1 7899   6.952   4.548   1.178  0.5704  0.7758  1.0069
 2235SOL    HW2 7900   7.007   4.407   1.165 -1.8571 -0.0976 -0.6263
 2236SOL     OW 7901   1.157   7.485   6.211 -0.2741 -0.9600  0.2906
 2236SOL    HW1 7902   1.236   7.479   6.158 -0.4512 -1.4648  0.0816
 2236SOL    HW2 7903   1.116   7.399   6.203 -0.4635 -0.9373  0.9921
 2237SOL     OW 7904   2.162   1.351   7.087  0.5687  0.4875 -0.0144
 2237SOL    HW1 7905   2.103   1.335   7.013 -0.7661  0.9796  0.9138
 2237SOL    HW2 7906   2.164   1.267   7.134 -0.8981  0.9544  0.9671
 2238SOL     OW 7907   7.747   6.692   5.545 -0.7262 -0.7748  0.4467
 2238SOL    HW1 7908   7.729   6.651   5.461 -1.2617 -1.1861  0.7579
 2238SOL    HW2 7909   7.664   6.730   5.572 -0.6620 -1.0013  0.9814
 2239SOL     OW 7910   6.023   6.550   0.639  0.3818  0.3871  0.0213
 2239SOL    HW1 7911   5.946   6.497   0.660  1.4103 -1.6295 -1.0738
 2239SOL    HW2 7912   5.998   6.598   0.560 -0.6250  1.8276  1.1342
 2240SOL     OW 7913   6.641   0.412   7.895  0.1548 -0.3456 -0.5126
 2240SOL    HW1 7914   6.653   0.431   7.802 -1.0274 -2.1432 -1.0713
 2240SOL    HW2 7915   6.683   0.486   7.940 -0.4029  1.2506 -2.4723
 2241SOL     OW 7916   6.307   1.567   5.551 -0.0325  0.3992  0.0244
 2241SOL    HW1 7917   6.291   1.481   5.512 -1.3682  0.6880 -0.0994
 2241SOL    HW2 7918   6.289   1.629   5.480 -1.2223  0.8691  0.7074
 2242SOL     OW 7919   0.377   6.894   7.087 -0.0122 -0.2472  0.1777
 2242SOL    HW1 7920   0.429   6.922   7.012  0.6227 -1.1369  0.2736
 2242SOL    HW2 7921   0.378   6.798   7.083 -1.7685 -0.2881  0.1108
 2243SOL     OW 7922   3.150   2.784   0.519  0.0963  0.4663 -0.2728
 2243SOL    HW1 7923   3.213   2.740   0.463  0.4712 -0.3282  0.7448
 2243SOL    HW2 7924   3.065   2.747   0.495  0.4705 -1.3492  1.0094
 2244SOL     OW 7925   4.076   6.600   8.460 -0.7982  0.0915 -0.0042
 2244SOL    HW1 7926   4.160   6.640   8.481 -0.4856 -0.8174  0.5070
 2244SOL    HW2 7927   4.016   6.674   8.451 -0.2479  0.6702  0.9955
 2245SOL     OW 7928   2.113   8.508   5.065 -0.2878 -0.8141  0.1213
 2245SOL    HW1 7929   2.057   8.431   5.058  2.6171 -2.9860 -0.9607
 2245SOL    HW2 7930   2.148   8.505   5.154  1.0016 -1.7026 -0.3846
 2246SOL     OW 7931   6.626   6.667   2.549 -0.0896  0.1751  0.0501
 2246SOL    HW1 7932   6.699   6.729   2.559  0.1955 -0.1595  0.0332
 2246SOL    HW2 7933   6.588   6.661   2.637 -0.9017  1.3310 -0.1918
 2247SOL     OW 7934   1.737   0.271   2.208  0.4001 -0.5442 -0.3420
 2247SOL    HW1 7935   1.762   0.352   2.165  0.8222 -1.5664 -2.1098
 2247SOL    HW2 7936   1.647   0.255   2.180  0.0408 -0.3204  0.6267
 2248SOL     OW 7937   2.886   6.818   1.695  0.1226 -0.2981  0.6441
 2248SOL    HW1 7938   2.855   6.728   1.702  1.9837 -0.9781  0.6952
 2248SOL    HW2 7939   2.915   6.841   1.783  0.2867  0.1136  0.4888
 2249SOL     OW 7940   8.441   8.030   6.739 -0.3739  0.2410 -0.1401
 2249SOL    HW1 7941   8.466   8.103   6.796 -0.6804  0.2266  0.0188
 2249SOL    HW2 7942   8.352   8.008   6.767 -1.5717  1.8987 -2.2659
 2250SOL     OW 7943   7.001   5.277   3.288 -0.1512 -0.1873 -0.4923
 2250SOL    HW1 7944   6.964   5.355   3.246 -1.5883 -1.7921 -2.4203
 2250SOL    HW2 7945   7.018   5.217   3.216  1.5699 -1.4228  0.8639
 2251SOL     OW 7946   4.650   4.880   2.049  0.1094  0.1173 -0.2142
 2251SOL    HW1 7947   4.674   4.962   2.007 -2.6878  0.7672 -0.7613
 2251SOL    HW2 7948   4.641   4.902   2.142  1.0324 -0.0094 -0.0887
 2252SOL     OW 7949   0.721   7.180   6.754  0.3611  0.3097 -0.4923
 2252SOL    HW1 7950   0.723   7.143   6.665 -1.6463  1.8971 -1.2598
 2252SOL    HW2 7951   0.755   7.269   6.744  2.5741 -0.2928  0.8655
 2253SOL     OW 7952   0.063   7.389   4.979 -0.0637  0.1289  0.3557
 2253SOL    HW1 7953   0.098   7.475   4.956  0.5438 -0.0080  0.7598
 2253SOL    HW2 7954  -0.010   7.407   5.038  0.1720  0.3563  0.5762
 2254SOL     OW 7955   4.598   5.553   0.418  0.0958 -0.1468  0.0097
 2254SOL    HW1 7956   4.552   5.471   0.399  0.9109 -0.8148  0.8364
 2254SOL    HW2 7957   4.543   5.597   0.483  0.1801 -0.5475  0.3607
 2255SOL     OW 7958   8.081   0.897   3.878 -0.1892  0.1368 -0.6354
 2255SOL    HW1 7959   8.176   0.886   3.883 -0.1948  0.5829  0.8645
 2255SOL    HW2 7960   8.053   0.834   3.812  1.0846 -0.3878 -0.6973
 2256SOL     OW 7961   5.696   5.215   8.282 -0.2333  0.0184 -0.3480
 2256SOL    HW1 7962   5.653   5.235   8.199 -0.5412 -1.3240 -0.5282
 2256SOL    HW2 7963   5.625   5.193   8.341  0.1129 -1.0153 -0.3035
 2257SOL     OW 7964   5.809   4.919   2.179  0.5129  0.2359  0.3496
 2257SOL    HW1 7965   5.728   4.883   2.217 -0.0331 -0.1442 -1.0844
 2257SOL    HW2 7966   5.796   5.013   2.182 -0.7586  0.1692 -1.3419
 2258SOL     OW 7967   1.298   1.613   7.537 -0.1931  0.0851 -0.1653
 2258SOL    HW1 7968   1.352   1.558   7.594 -0.5803 -1.4489 -1.2057
 2258SOL    HW2 7969   1.298   1.567   7.453 -0.0385  2.0281 -1.2750
 2259SOL     OW 7970   2.264   3.270   3.213 -0.4118  0.0740 -0.4374
 2259SOL    HW1 7971   2.279   3.291   3.305  0.3070  0.1235 -0.5655
 2259SOL    HW2 7972   2.178   3.228   3.212  0.9464 -2.9639  0.7017
 2260SOL     OW 7973   6.562   3.470   1.037  0.3264 -0.1780 -0.3184
 2260SOL    HW1 7974   6.573   3.523   0.959  0.1554  1.9281  1.0122
 2260SOL    HW2 7975   6.635   3.408   1.034  0.0062 -0.5264 -2.3867
 2261SOL     OW 7976   1.697   8.254   2.387  0.1801  0.0208  0.4254
 2261SOL    HW1 7977   1.608   8.288   2.381  0.6310  1.1772  0.0146
 2261SOL    HW2 7978   1.753   8.330   2.371  1.2501 -0.6079  1.0827
 2262SOL     OW 7979   7.128   2.229   6.967  0.0761  0.2862 -0.3371
 2262SOL    HW1 7980   7.060   2.197   6.907  1.1264 -1.7215 -0.5362
 2262SOL    HW2 7981   7.209   2.222   6.916  0.8118 -0.1859  0.8626
 2263SOL     OW 7982   0.575   2.513   5.001 -0.3103 -0.1186  0.5960
 2263SOL    HW1 7983   0.502   2.567   4.971  0.7574  1.7001  1.0863
 2263SOL    HW2 7984   0.646   2.535   4.941  0.5434  0.0974  1.6508
 2264SOL     OW 7985   5.558   6.579   4.637 -0.2269 -0.2251 -0.0742
 2264SOL    HW1 7986   5.611   6.588   4.558  1.2969  0.4664  0.9736
 2264SOL    HW2 7987   5.476   6.623   4.616 -0.3041 -1.0618 -1.6405
 2265SOL     OW 7988   4.278   0.087   0.812  0.6116  0.7744 -0.0856
 2265SOL    HW1 7989   4.214   0.056   0.747  0.6390 -0.8925  0.6488
 2265SOL    HW2 7990   4.228   0.147   0.868 -0.4540 -0.7940  0.7121
 2266SOL     OW 7991   0.566   4.692   1.438 -0.1683 -0.2269 -0.4962
 2266SOL    HW1 7992   0.648   4.684   1.390  0.2207  1.3599 -0.1612
 2266SOL    HW2 7993   0.500   4.655   1.380  0.4815  0.4750 -1.7136
 2267SOL     OW 7994   8.530   0.163   7.756  0.4297 -0.0826 -0.0741
 2267SOL    HW1 7995   8.502   0.235   7.700  0.1874 -0.7841 -0.8805
 2267SOL    HW2 7996   8.457   0.100   7.752  0.2494  0.0024  1.3188
 2268SOL     OW 7997   1.462   3.261   6.561  0.2402 -0.3559 -0.6788
 2268SOL    HW1 7998   1.505   3.346   6.553  0.3983 -0.3461  0.1490
 2268SOL    HW2 7999   1.498   3.224   6.642  0.3944 -1.3440 -1.1925
 2269SOL     OW 8000   2.742   3.846   7.759  0.4030 -0.1341  0.6601
 2269SOL    HW1 8001   2.810   3.843   7.827 -1.0748  1.0315  2.2753
 2269SOL    HW2 8002   2.661   3.864   7.807 -1.2747 -2.4611 -1.0808
 2270SOL     OW 8003   7.286   6.404   8.050  0.1432 -0.1175 -0.3622
 2270SOL    HW1 8004   7.259   6.337   8.113 -0.9885 -0.2486 -0.9634
 2270SOL    HW2 8005   7.359   6.365   8.002  0.9599 -0.0543  0.7844
 2271SOL     OW 8006   0.258   3.187   5.326  0.2829 -0.0891  0.2340
 2271SOL    HW1 8007   0.259   3.232   5.410  1.3336 -0.2818  0.3500
 2271SOL    HW2 8008   0.351   3.181   5.302 -0.0514  0.7667 -1.3724
 2272SOL     OW 8009   4.016   2.954   0.870  0.6896 -0.6049  0.0795
 2272SOL    HW1 8010   3.943   2.982   0.816  0.7809 -0.0562  0.2312
 2272SOL    HW2 8011   3.976   2.928   0.953  0.4153 -2.6465 -0.6554
 2273SOL     OW 8012   1.996   6.680   3.660  0.5529  0.1462 -0.6167
 2273SOL    HW1 8013   1.905   6.670   3.688  0.7486 -0.0288 -0.0253
 2273SOL    HW2 8014   2.015   6.773   3.672  0.9081 -0.0666  0.7523
 2274SOL     OW 8015   5.226   8.057   2.304 -0.0435  0.2611 -0.3348
 2274SOL    HW1 8016   5.157   7.997   2.277 -0.4128  0.1990  0.7204
 2274SOL    HW2 8017   5.242   8.036   2.396  0.9712  0.6740 -0.4060
 2275SOL     OW 8018   1.823   7.555   6.851 -0.3589  0.3151  0.3429
 2275SOL    HW1 8019   1.765   7.575   6.925  1.6653  2.1065  1.5543
 2275SOL    HW2 8020   1.904   7.524   6.892  0.8087  1.3293 -1.0980
 2276SOL     OW 8021   2.131   3.278   7.794 -0.0137 -0.2332 -0.0737
 2276SOL    HW1 8022   2.045   3.255   7.761  0.1112  1.7109 -1.9793
 2276SOL    HW2 8023   2.190   3.213   7.756 -0.2206  0.4872 -1.6969
 2277SOL     OW 8024   2.173   6.779   1.805 -0.2439 -0.4431 -0.5554
 2277SOL    HW1 8025   2.110   6.744   1.741  0.0980 -1.1017 -0.5337
 2277SOL    HW2 8026   2.168   6.874   1.792 -1.6943 -0.4343 -0.1308
 2278SOL     OW 8027   5.038   5.392   4.839 -0.2084 -0.5416 -0.3761
 2278SOL    HW1 8028   5.026   5.454   4.767  0.6842  1.5060  1.1192
 2278SOL    HW2 8029   5.041   5.306   4.797 -2.2181  0.3167 -2.4877
 2279SOL     OW 8030   5.742   2.705   4.217 -0.0675 -0.7490 -0.2287
 2279SOL    HW1 8031   5.749   2.610   4.219  0.7739 -0.7077  2.0524
 2279SOL    HW2 8032   5.703   2.728   4.302  0.7932  0.9729 -0.2497
 2280SOL     OW 8033   4.687   8.351   6.624  0.3848 -0.0872 -0.3153
 2280SOL    HW1 8034   4.603   8.395   6.614  0.2149 -0.3368 -0.0215
 2280SOL    HW2 8035   4.692   8.291   6.550  1.0062  1.0368 -1.2037
 2281SOL     OW 8036   7.793   5.613   2.952  0.6071  0.2040 -0.2178
 2281SOL    HW1 8037   7.702   5.625   2.978 -0.1335 -0.6275 -2.1731
 2281SOL    HW2 8038   7.805   5.518   2.950  1.6584  0.3049  0.4020
 2282SOL     OW 8039   6.000   5.170   2.329  0.0655  0.0673  0.1111
 2282SOL    HW1 8040   5.913   5.147   2.362  0.1562  1.0576  1.1110
 2282SOL    HW2 8041   6.047   5.200   2.406  0.9296  0.6077 -0.6142
 2283SOL     OW 8042   0.014   0.945   5.945 -0.3105 -0.2216  0.2975
 2283SOL    HW1 8043  -0.049   0.891   5.898 -1.0541  0.5722  0.3604
 2283SOL    HW2 8044   0.059   0.994   5.877 -0.7432  0.2490  0.3510
 2284SOL     OW 8045   1.979   0.273   6.927  0.0608  0.0058  0.2707
 2284SOL    HW1 8046   2.014   0.232   6.848 -0.0381  0.4646 -0.0148
 2284SOL    HW2 8047   1.884   0.267   6.917  0.0177 -1.4916  1.1750
 2285SOL     OW 8048   8.135   7.309   1.388  0.0880  0.0168 -0.0274
 2285SOL    HW1 8049   8.142   7.213   1.383 -0.0609  0.0320 -0.5988
 2285SOL    HW2 8050   8.075   7.324   1.462 -2.5438 -0.4607 -1.9018
 2286SOL     OW 8051   6.762   2.788   1.135 -0.7403 -0.1146  0.2353
 2286SOL    HW1 8052   6.853   2.815   1.129 -0.6761 -0.4162 -0.2359
 2286SOL    HW2 8053   6.722   2.821   1.054 -0.6029 -1.6063 -0.4733
 2287SOL     OW 8054   5.179   1.554   1.142  0.2599 -0.1180  0.2049
 2287SOL    HW1 8055   5.180   1.486   1.209  0.7355 -0.0549  0.2643
 2287SOL    HW2 8056   5.087   1.560   1.115 -0.3031  1.2271  2.2308
 2288SOL     OW 8057   1.568   4.018   3.998 -0.2703  0.0561  0.0119
 2288SOL    HW1 8058   1.491   4.026   3.941  0.8231  0.9163 -1.4066
 2288SOL    HW2 8059   1.639   3.995   3.939  0.7189 -0.0192  1.1980
 2289SOL     OW 8060   6.219   4.302   0.787 -0.1365 -0.3694 -0.6369
 2289SOL    HW1 8061   6.308   4.293   0.753 -0.5557  0.7820 -2.1394
 2289SOL    HW2 8062   6.227   4.278   0.879  1.8604  0.2544 -0.5862
 2290SOL     OW 8063   6.265   3.313   2.791 -0.5362  0.1086  0.0844
 2290SOL    HW1 8064   6.233   3.268   2.869 -0.6639 -0.7468 -0.4393
 2290SOL    HW2 8065   6.186   3.345   2.748 -0.5414 -0.2068 -0.1477
 2291SOL     OW 8066   1.401   2.753   6.142  0.7228  0.2865  0.2458
 2291SOL    HW1 8067   1.342   2.761   6.067  0.2714  0.3214  0.6074
 2291SOL    HW2 8068   1.344   2.737   6.217  1.2620 -1.2200  0.3614
 2292SOL     OW 8069   2.316   7.268   1.765  0.3598 -0.2111  0.0291
 2292SOL    HW1 8070   2.248   7.204   1.742  0.8740 -0.9497  0.5299
 2292SOL    HW2 8071   2.351   7.237   1.848 -0.0596  1.2834  0.7942
 2293SOL     OW 8072   7.477   7.349   5.354 -0.5790  0.6672 -0.6850
 2293SOL    HW1 8073   7.514   7.424   5.400 -1.0241  1.5985 -1.7919
 2293SOL    HW2 8074   7.519   7.351   5.268 -0.2878 -0.6102 -0.5843
 2294SOL     OW 8075   1.218   8.201   8.518  0.2280  0.0069 -0.0424
 2294SOL    HW1 8076   1.124   8.202   8.501  0.2869  2.8242 -0.6647
 2294SOL    HW2 8077   1.227   8.234   8.607  0.6740  3.3828 -1.2063
 2295SOL     OW 8078   8.344   6.979   1.044  0.7539  0.2438 -0.1970
 2295SOL    HW1 8079   8.293   6.899   1.053 -3.7984  2.9043  0.6997
 2295SOL    HW2 8080   8.325   7.010   0.955 -0.6209  2.0028  0.6296
 2296SOL     OW 8081   8.456   6.320   8.441 -0.2510  0.2719  0.1655
 2296SOL    HW1 8082   8.382   6.261   8.428  0.0091 -0.0180 -0.0314
 2296SOL    HW2 8083   8.525   6.284   8.384 -0.1261  0.8232 -0.0324
 2297SOL     OW 8084   2.306   4.895   3.693  0.2996 -0.2260  0.6813
 2297SOL    HW1 8085   2.347   4.830   3.750  1.4532  0.0881  0.2297
 2297SOL    HW2 8086   2.273   4.845   3.618  1.1759 -0.2990  0.3391
 2298SOL     OW 8087   8.575   2.624   2.661 -0.3156 -0.0261  0.4052
 2298SOL    HW1 8088   8.480   2.634   2.652 -0.3108 -0.4364 -0.1980
 2298SOL    HW2 8089   8.610   2.712   2.651 -0.6366  0.1278  0.6454
 2299SOL     OW 8090   1.092   3.893   5.373 -0.3155  0.4808 -0.3847
 2299SOL    HW1 8091   1.104   3.982   5.407  0.1891  0.1462  0.3381
 2299SOL    HW2 8092   1.168   3.879   5.317  0.3639  0.0077  0.6182
 2300SOL     OW 8093   1.283   0.368   2.746  0.0978 -0.2193  0.5877
 2300SOL    HW1 8094   1.314   0.425   2.676 -0.6721 -1.3891 -0.7726
 2300SOL    HW2 8095   1.215   0.419   2.790 -0.8163 -0.1406 -0.8190
 2301SOL     OW 8096   3.812   2.961   4.104  0.7188 -0.1630 -0.2238
 2301SOL    HW1 8097   3.777   3.047   4.080  2.5711  0.6356 -0.2859
 2301SOL    HW2 8098   3.802   2.957   4.200  1.4165  0.5291 -0.1101
 2302SOL     OW 8099   0.093   1.282   1.921  0.3527  0.2456 -0.8967
 2302SOL    HW1 8100   0.004   1.302   1.952 -0.3694 -2.4255 -1.0175
 2302SOL    HW2 8101   0.122   1.210   1.977  2.0174  0.3418 -1.5996
 2303SOL     OW 8102   3.052   7.933   0.675  0.0138  0.1749 -1.0239
 2303SOL    HW1 8103   3.135   7.945   0.720 -0.5403 -0.0532  0.0971
 2303SOL    HW2 8104   3.024   7.844   0.698 -0.3636  0.1076 -1.7000
 2304SOL     OW 8105   1.388   3.805   7.111 -0.4613 -0.4373  0.1124
 2304SOL    HW1 8106   1.306   3.843   7.142  0.3638  0.8935  0.7352
 2304SOL    HW2 8107   1.391   3.826   7.018 -0.1511  0.7983  0.3921
 2305SOL     OW 8108   0.772   4.597   0.096  0.2693  0.4505  0.5355
 2305SOL    HW1 8109   0.695   4.596   0.152 -1.2963 -1.2445 -1.4739
 2305SOL    HW2 8110   0.801   4.505   0.093 -1.1752 -0.0555 -3.1626
 2306SOL     OW 8111   4.925   4.991   0.987 -0.4357 -0.2443  0.4276
 2306SOL    HW1 8112   4.949   5.065   0.931 -0.0963 -2.2347 -2.2428
 2306SOL    HW2 8113   4.843   5.018   1.029  0.3944  2.1451  0.6740
 2307SOL     OW 8114   5.174   5.399   3.196 -0.0547  0.4902  0.7879
 2307SOL    HW1 8115   5.165   5.396   3.101  0.2309  0.4923  0.7601
 2307SOL    HW2 8116   5.211   5.485   3.214 -0.6693  0.7245  0.9508
 2308SOL     OW 8117   1.098   3.117   4.186 -0.0635 -0.3002  0.5783
 2308SOL    HW1 8118   1.125   3.028   4.206 -0.1111 -0.4782 -0.1105
 2308SOL    HW2 8119   1.161   3.173   4.232  1.3147 -0.7027 -0.7252
 2309SOL     OW 8120   3.611   0.780   0.680  0.5144 -0.3165  0.2441
 2309SOL    HW1 8121   3.605   0.686   0.666 -0.6155 -0.0909 -0.9470
 2309SOL    HW2 8122   3.612   0.790   0.775 -0.9506 -1.4502  0.4067
 2310SOL     OW 8123   3.922   2.480   2.215  0.0807  0.8963 -0.0116
 2310SOL    HW1 8124   3.908   2.441   2.129 -0.2119  1.2379 -0.1216
 2310SOL    HW2 8125   3.848   2.539   2.227  0.0329  0.7297  0.5460
 2311SOL     OW 8126   1.937   2.254   3.954 -0.0003 -0.4316  0.2930
 2311SOL    HW1 8127   1.919   2.317   3.884  1.2745 -0.4465 -0.0707
 2311SOL    HW2 8128   2.029   2.232   3.944 -0.1260 -1.4584  1.1614
 2312SOL     OW 8129   1.613   6.233   3.301 -0.1454 -0.3568  0.2543
 2312SOL    HW1 8130   1.598   6.327   3.311  1.5713 -0.1234  1.0205
 2312SOL    HW2 8131   1.654   6.224   3.215 -0.3105 -0.4178  0.1804
 2313SOL     OW 8132   7.029   1.570   7.502 -0.3761 -0.4463  0.1489
 2313SOL    HW1 8133   7.102   1.611   7.455  0.2946 -1.0601  0.6397
 2313SOL    HW2 8134   7.070   1.516   7.569 -1.2564 -1.5293 -0.1540
 2314SOL     OW 8135   7.504   1.569   2.719 -0.1599  0.1176 -0.0973
 2314SOL    HW1 8136   7.458   1.610   2.792  0.2798 -1.1263  0.9171
 2314SOL    HW2 8137   7.577   1.523   2.759  0.7310  0.2976 -1.4550
 2315SOL     OW 8138   5.427   2.589   6.215  0.2770 -0.3259 -0.1558
 2315SOL    HW1 8139   5.478   2.587   6.296 -0.8521  2.0034  0.7080
 2315SOL    HW2 8140   5.336   2.596   6.244 -0.2765 -1.0471 -1.6500
 2316SOL     OW 8141   3.708   1.760   4.368 -0.1930  0.1464  0.3756
 2316SOL    HW1 8142   3.621   1.789   4.340 -0.0560  0.5910  0.4094
 2316SOL    HW2 8143   3.767   1.792   4.300  0.1791  1.4685  1.2803
 2317SOL     OW 8144   8.143   1.115   3.739 -0.4710 -0.2729 -0.3415
 2317SOL    HW1 8145   8.186   1.051   3.682  0.8001  0.6995 -0.5018
 2317SOL    HW2 8146   8.121   1.064   3.818  0.8956 -0.8265 -0.2934
 2318SOL     OW 8147   4.005   7.483   8.291 -0.9457  0.4151  0.7987
 2318SOL    HW1 8148   4.005   7.564   8.238  0.2713 -0.4376 -0.6028
 2318SOL    HW2 8149   3.913   7.456   8.293 -1.1697  1.0642  0.0321
 2319SOL     OW 8150   0.604   8.591   2.613  0.3008 -0.2305  0.3173
 2319SOL    HW1 8151   0.563   8.514   2.651 -0.7170 -0.0773 -0.4303
 2319SOL    HW2 8152   0.540   8.624   2.550  1.2454  0.4937 -0.2957
 2320SOL     OW 8153   7.415   4.799   0.573  0.2421 -0.1881  0.2986
 2320SOL    HW1 8154   7.442   4.879   0.528  0.3894 -1.1478 -1.3868
 2320SOL    HW2 8155   7.496   4.765   0.611  0.1822  0.4398  1.0101
 2321SOL     OW 8156   1.075   6.967   2.599  0.4171 -0.3064  0.1619
 2321SOL    HW1 8157   1.101   6.914   2.524 -0.7390 -1.4042  0.5191
 2321SOL    HW2 8158   1.034   7.045   2.560  1.1278 -0.1765 -0.3480
 2322SOL     OW 8159   2.741   7.293   5.324 -0.6315  0.2019  0.1836
 2322SOL    HW1 8160   2.753   7.381   5.291 -2.4175  0.0877 -0.9152
 2322SOL    HW2 8161   2.771   7.297   5.415  0.9711  1.4598 -0.3683
 2323SOL     OW 8162   5.240   3.010   5.814 -0.1407 -0.3738 -0.0660
 2323SOL    HW1 8163   5.309   2.993   5.877  2.1696 -0.6694 -2.5006
 2323SOL    HW2 8164   5.252   3.101   5.788 -0.8855 -0.3299 -0.2882
 2324SOL     OW 8165   1.744   6.573   3.147  0.1370  0.4299  0.7037
 2324SOL    HW1 8166   1.833   6.547   3.125  0.2494 -0.1930  1.7994
 2324SOL    HW2 8167   1.716   6.509   3.213 -2.0108 -0.8707 -1.3280
 2325SOL     OW 8168   5.444   4.621   7.012  0.0865 -0.3240  0.0580
 2325SOL    HW1 8169   5.392   4.596   7.088 -1.1483  0.0295 -0.6390
 2325SOL    HW2 8170   5.382   4.616   6.939  1.3403 -1.0622 -0.9922
 2326SOL     OW 8171   8.066   0.946   6.426 -0.0392 -0.5056 -0.2723
 2326SOL    HW1 8172   8.056   0.866   6.374 -0.1872 -1.0624  0.5929
 2326SOL    HW2 8173   8.013   0.930   6.504 -1.1685  0.9801 -0.6924
 2327SOL     OW 8174   0.520   5.037   1.296  0.2826  0.0244  0.1293
 2327SOL    HW1 8175   0.565   5.022   1.379 -0.6768 -0.5141  0.5563
 2327SOL    HW2 8176   0.463   5.112   1.312 -1.3670 -1.2608  0.5788
 2328SOL     OW 8177   5.271   2.975   7.283  0.1116  0.2000  0.3954
 2328SOL    HW1 8178   5.304   3.060   7.253 -0.5186  0.3584  0.1324
 2328SOL    HW2 8179   5.231   2.992   7.368 -2.3352  0.7179 -0.7785
 2329SOL     OW 8180   0.134   7.839   0.365  0.7510  0.1529  0.3471
 2329SOL    HW1 8181   0.154   7.834   0.272  1.4084 -1.4107  0.5492
 2329SOL    HW2 8182   0.167   7.925   0.392 -0.5864  1.1730 -1.0864
 2330SOL     OW 8183   2.225   1.674   8.204  0.0286 -0.4205  0.3924
 2330SOL    HW1 8184   2.318   1.658   8.215  0.2642  0.0987 -0.6862
 2330SOL    HW2 8185   2.218   1.769   8.191 -0.1455 -0.8313 -3.5973
 2331SOL     OW 8186   2.574   3.325   5.181  0.1640  0.1533  0.1141
 2331SOL    HW1 8187   2.513   3.359   5.117 -0.0722 -0.2991  0.0931
 2331SOL    HW2 8188   2.538   3.350   5.266 -0.0741 -0.1445  0.1030
 2332SOL     OW 8189   1.299   2.708   4.756  0.2309  0.3015  0.7063
 2332SOL    HW1 8190   1.235   2.646   4.721  0.8018 -0.7532  1.4760
 2332SOL    HW2 8191   1.351   2.734   4.680  0.0149 -0.2075  0.3815
 2333SOL     OW 8192   5.941   1.411   6.146 -0.1709 -0.0794  0.2953
 2333SOL    HW1 8193   5.977   1.497   6.126  3.3318 -1.4213  0.1009
 2333SOL    HW2 8194   6.011   1.366   6.194 -1.6904 -2.9504  0.0555
 2334SOL     OW 8195   6.648   5.159   0.229 -0.6842 -0.0776 -0.0319
 2334SOL    HW1 8196   6.733   5.126   0.201 -1.1231 -1.0824 -0.1898
 2334SOL    HW2 8197   6.669   5.237   0.280  0.2657  0.3541 -1.0385
 2335SOL     OW 8198   8.062   2.814   3.527  0.1876 -0.2587  0.2845
 2335SOL    HW1 8199   8.003   2.863   3.584 -0.0441 -1.5387  1.2121
 2335SOL    HW2 8200   8.034   2.723   3.537  0.5712 -0.5956 -1.3995
 2336SOL     OW 8201   1.501   5.977   1.655  0.0466  0.4950 -0.3032
 2336SOL    HW1 8202   1.506   6.007   1.745 -0.9966  1.9576 -0.7096
 2336SOL    HW2 8203   1.562   6.034   1.607  1.6397 -1.1453 -0.3547
 2337SOL     OW 8204   8.149   6.487   4.982 -0.5271 -0.1196  0.6357
 2337SOL    HW1 8205   8.101   6.541   4.919 -2.7046 -2.3069  0.2747
 2337SOL    HW2 8206   8.092   6.482   5.059  0.1899 -0.9034  1.1477
 2338SOL     OW 8207   1.699   8.018   1.514 -0.2847 -0.3056  0.1274
 2338SOL    HW1 8208   1.735   7.980   1.433 -0.3962 -1.1074  0.4469
 2338SOL    HW2 8209   1.743   7.971   1.584 -1.3090 -0.6893  0.5321
 2339SOL     OW 8210   0.652   4.976   2.053 -0.5575 -0.1235 -0.6372
 2339SOL    HW1 8211   0.626   4.996   2.143 -1.3678  0.6520 -1.0305
 2339SOL    HW2 8212   0.581   4.919   2.021 -0.5423  0.0384 -0.9535
 2340SOL     OW 8213   6.446   3.190   1.025 -0.3254 -0.3852 -0.1718
 2340SOL    HW1 8214   6.477   3.104   0.995  0.2719  0.5918 -2.5613
 2340SOL    HW2 8215   6.504   3.211   1.099  0.4937 -1.4078 -0.4920
 2341SOL     OW 8216   7.027   8.041   3.175  0.0194 -0.3449 -0.3082
 2341SOL    HW1 8217   7.072   8.099   3.236  0.2342 -0.1603 -0.6403
 2341SOL    HW2 8218   6.934   8.050   3.197 -0.1007  1.2744 -1.3317
 2342SOL     OW 8219   8.451   4.710   2.979 -0.1721  0.1244 -0.1312
 2342SOL    HW1 8220   8.457   4.803   2.958 -3.5457  0.8672  1.4279
 2342SOL    HW2 8221   8.475   4.705   3.072 -1.5057 -0.2471  0.2133
 2343SOL     OW 8222   6.126   1.656   4.546 -0.1825 -0.1736  0.3525
 2343SOL    HW1 8223   6.109   1.563   4.540 -0.2077 -0.1484  0.0486
 2343SOL    HW2 8224   6.176   1.666   4.628  0.1973 -0.5068  0.1621
 2344SOL     OW 8225   6.329   4.174   3.377  0.1671 -0.3639  0.1056
 2344SOL    HW1 8226   6.278   4.197   3.299  1.1276  1.5565 -0.0308
 2344SOL    HW2 8227   6.396   4.113   3.345  0.1467 -0.0967 -0.4534
 2345SOL     OW 8228   2.999   5.724   7.510 -0.6228 -0.0641 -0.3591
 2345SOL    HW1 8229   2.948   5.682   7.440 -0.4275 -1.1816  0.1376
 2345SOL    HW2 8230   2.934   5.776   7.558 -0.5912  1.4495 -1.8770
 2346SOL     OW 8231   8.025   3.570   3.213  0.3642  0.2093 -0.3116
 2346SOL    HW1 8232   8.103   3.565   3.268 -1.0939 -0.8123  1.8111
 2346SOL    HW2 8233   7.994   3.479   3.207 -1.6658  0.7868  0.4775
 2347SOL     OW 8234   2.262   6.219   1.899 -0.3188  0.1327  0.5249
 2347SOL    HW1 8235   2.353   6.230   1.873 -0.6418  0.6952 -0.4226
 2347SOL    HW2 8236   2.230   6.308   1.916 -1.5765  0.3344 -2.3681
 2348SOL     OW 8237   7.277   3.883   2.744 -0.4619 -0.1639 -0.5297
 2348SOL    HW1 8238   7.220   3.935   2.687  0.0251 -1.0473 -1.8852
 2348SOL    HW2 8239   7.220   3.854   2.815 -1.4492 -0.1398 -1.2798
 2349SOL     OW 8240   4.816   2.600   5.745  0.5079 -0.0569 -0.0782
 2349SOL    HW1 8241   4.756   2.543   5.696  2.1012 -0.7681 -1.2933
 2349SOL    HW2 8242   4.864   2.648   5.677 -0.1570  2.1163  0.8991
 2350SOL     OW 8243   8.569   0.058   0.296  0.0708  0.2546  0.2394
 2350SOL    HW1 8244   8.505   0.129   0.310 -0.0644  0.0061  0.8964
 2350SOL    HW2 8245   8.580   0.019   0.382  2.5232  1.4602  0.5502
 2351SOL     OW 8246   1.298   6.310   1.691  0.0508  0.4065 -0.1866
 2351SOL    HW1 8247   1.282   6.392   1.737 -0.5217  0.3677 -0.3171
 2351SOL    HW2 8248   1.242   6.314   1.614 -2.5262 -1.5027  1.4304
 2352SOL     OW 8249   1.318   5.547   3.557  0.5549  0.3608 -0.2893
 2352SOL    HW1 8250   1.347   5.606   3.627  0.2729  0.7699 -0.5093
 2352SOL    HW2 8251   1.280   5.472   3.603  2.1868 -0.3077 -0.0006
 2353SOL     OW 8252   0.202   3.763   6.265 -0.2118  0.5740  0.0438
 2353SOL    HW1 8253   0.148   3.829   6.309 -0.8492 -1.3988  2.4483
 2353SOL    HW2 8254   0.291   3.798   6.270 -0.7968  2.2554 -0.7855
 2354SOL     OW 8255   1.626   0.707   2.354 -0.1091  0.0277 -0.0512
 2354SOL    HW1 8256   1.596   0.617   2.367 -0.4961  0.1832  0.1458
 2354SOL    HW2 8257   1.720   0.704   2.371 -0.1934 -0.2572  0.3634
 2355SOL     OW 8258   1.953   3.235   4.773  0.9084 -0.0079  0.4746
 2355SOL    HW1 8259   1.921   3.240   4.683  0.2861 -2.9223  0.4626
 2355SOL    HW2 8260   2.048   3.247   4.765  0.8377 -0.0606 -0.5435
 2356SOL     OW 8261   0.611   2.777   3.898  0.9441 -0.1213 -0.5499
 2356SOL    HW1 8262   0.701   2.794   3.870  0.3035  1.2993 -1.9502
 2356SOL    HW2 8263   0.564   2.759   3.816 -0.2962  0.5331 -0.0093
 2357SOL     OW 8264   6.679   3.300   1.876 -0.0210  0.3028  0.0059
 2357SOL    HW1 8265   6.740   3.231   1.849 -0.5444 -0.5345  0.8888
 2357SOL    HW2 8266   6.633   3.324   1.796  0.6672  0.1314 -0.4486
 2358SOL     OW 8267   2.405   6.972   2.455 -0.2906  0.3010  0.0509
 2358SOL    HW1 8268   2.374   6.882   2.455 -1.5981  0.7244 -0.1140
 2358SOL    HW2 8269   2.460   6.978   2.378  2.3763 -1.1421  1.7061
 2359SOL     OW 8270   2.470   0.336   0.175  0.1547 -0.1411 -0.0366
 2359SOL    HW1 8271   2.398   0.307   0.118  0.7230  1.2806 -1.5279
 2359SOL    HW2 8272   2.542   0.354   0.115  2.2247 -2.6428  1.4975
 2360SOL     OW 8273   0.863   4.317   0.093 -0.3134 -0.6615 -0.0586
 2360SOL    HW1 8274   0.925   4.318   0.165 -2.3897  1.4373  1.8717
 2360SOL    HW2 8275   0.916   4.298   0.016  2.4963 -0.2020  1.6226
 2361SOL     OW 8276   2.818   2.692   1.146  0.3444  0.0477 -0.3676
 2361SOL    HW1 8277   2.796   2.599   1.150 -0.9680  0.3497  0.0853
 2361SOL    HW2 8278   2.736   2.734   1.119  0.2430  1.2949  1.7285
 2362SOL     OW 8279   8.088   1.684   2.756 -0.3873 -0.4888  0.4399
 2362SOL    HW1 8280   8.076   1.774   2.787 -1.0687 -0.3697 -0.1325
 2362SOL    HW2 8281   8.182   1.677   2.739 -0.4601  0.4368 -0.4399
 2363SOL     OW 8282   8.508   7.257   4.457  0.0299 -0.1063  0.2347
 2363SOL    HW1 8283   8.445   7.240   4.527 -1.6397  2.0457 -0.6328
 2363SOL    HW2 8284   8.579   7.303   4.500 -0.9927  1.2169  0.5758
 2364SOL     OW 8285   6.171   2.291   6.725  0.0125 -0.1555  0.2299
 2364SOL    HW1 8286   6.177   2.382   6.754  0.2194  0.1903 -0.8617
 2364SOL    HW2 8287   6.086   2.285   6.682  0.7261  0.0011 -1.2529
 2365SOL     OW 8288   0.641   6.884   4.733  0.2322 -0.1826 -0.0291
 2365SOL    HW1 8289   0.710   6.839   4.685 -0.1362 -1.1738  0.3480
 2365SOL    HW2 8290   0.569   6.820   4.739 -0.5297  0.6537  0.0132
 2366SOL     OW 8291   0.337   1.776   2.629  0.2632 -0.5462  0.1132
 2366SOL    HW1 8292   0.298   1.691   2.610 -0.8393  0.5210 -3.0501
 2366SOL    HW2 8293   0.404   1.788   2.562 -0.2963  1.4419 -0.1709
 2367SOL     OW 8294   6.099   8.160   5.651 -0.4476 -0.4067  0.5530
 2367SOL    HW1 8295   6.171   8.102   5.677  0.4034  0.2458 -0.2930
 2367SOL    HW2 8296   6.071   8.199   5.734 -0.2275 -1.1054  0.9758
 2368SOL     OW 8297   1.738   2.401   0.976  0.3699 -0.0430 -0.1474
 2368SOL    HW1 8298   1.794   2.423   0.902 -0.3808  0.4049 -0.5857
 2368SOL    HW2 8299   1.770   2.457   1.047  0.5888  0.0826 -0.3442
 2369SOL     OW 8300   1.389   3.236   0.621  0.9773 -0.2842 -0.2914
 2369SOL    HW1 8301   1.388   3.228   0.716  1.9475 -1.6537 -0.3600
 2369SOL    HW2 8302   1.304   3.275   0.599  0.7956  0.1637  1.1327
 2370SOL     OW 8303   6.463   5.758   0.652  0.0525  0.2124  0.0476
 2370SOL    HW1 8304   6.511   5.679   0.677  0.1823  0.0892 -0.5751
 2370SOL    HW2 8305   6.482   5.769   0.559  1.3673  1.9023  0.4769
 2371SOL     OW 8306   6.213   5.405   8.379 -0.1857 -0.0176  0.3377
 2371SOL    HW1 8307   6.206   5.500   8.367 -1.2372 -0.1228 -0.0417
 2371SOL    HW2 8308   6.123   5.374   8.371  0.4153 -1.3638 -2.4303
 2372SOL     OW 8309   6.912   7.893   5.859 -0.0316  0.4860 -0.4588
 2372SOL    HW1 8310   6.977   7.963   5.853 -0.6958  1.0418 -1.2276
 2372SOL    HW2 8311   6.878   7.900   5.948 -0.9168  1.8877 -0.8845
 2373SOL     OW 8312   7.026   2.700   0.320 -0.0348  0.3873 -0.1684
 2373SOL    HW1 8313   6.997   2.684   0.230 -0.6624  3.1301 -0.5356
 2373SOL    HW2 8314   6.995   2.624   0.369  0.8175 -1.4575 -2.3173
 2374SOL     OW 8315   1.469   8.573   7.744 -0.2020 -0.7627  0.0280
 2374SOL    HW1 8316   1.449   8.517   7.820  1.2307 -1.2194  0.1087
 2374SOL    HW2 8317   1.512   8.514   7.682  0.7653  0.0968 -0.1490
 2375SOL     OW 8318   7.043   8.562   2.859  0.3608 -0.3121 -0.0406
 2375SOL    HW1 8319   7.003   8.502   2.922 -2.1367  0.6265 -0.6344
 2375SOL    HW2 8320   7.111   8.607   2.909 -0.5544 -0.6348  1.5697
 2376SOL     OW 8321   7.250   2.341   7.393  0.2314 -0.6146  0.2183
 2376SOL    HW1 8322   7.305   2.419   7.401 -0.7623  0.0394  0.9845
 2376SOL    HW2 8323   7.299   2.283   7.336  1.3350  0.2768  0.2162
 2377SOL     OW 8324   4.669   6.812   7.729  0.3271 -0.3968  0.1369
 2377SOL    HW1 8325   4.747   6.784   7.682  0.8559  2.6959 -1.0729
 2377SOL    HW2 8326   4.602   6.821   7.660 -0.5172 -1.0452  0.8526
 2378SOL     OW 8327   6.931   6.253   7.084  0.3355  0.5804  0.1875
 2378SOL    HW1 8328   7.025   6.266   7.097  0.2356  0.8725  0.6405
 2378SOL    HW2 8329   6.900   6.215   7.166  0.2960 -0.8312 -0.4617
 2379SOL     OW 8330   0.188   3.120   0.839  0.8431  0.7778  0.2151
 2379SOL    HW1 8331   0.138   3.177   0.781 -3.0931 -0.0562  2.4141
 2379SOL    HW2 8332   0.127   3.048   0.859  3.7346 -1.4886  1.6087
 2380SOL     OW 8333   1.808   2.642   4.287  0.1011  0.5392 -0.2528
 2380SOL    HW1 8334   1.851   2.560   4.264  0.2143  1.2318 -2.8886
 2380SOL    HW2 8335   1.786   2.682   4.202 -0.6265  2.8722  0.9442
 2381SOL     OW 8336   0.978   6.779   0.950 -0.8342 -0.5529 -0.3251
 2381SOL    HW1 8337   0.968   6.749   1.041  0.6192  0.7846  0.3165
 2381SOL    HW2 8338   0.934   6.863   0.947  0.6802  0.2767 -0.3275
 2382SOL     OW 8339   7.110   5.476   2.615  0.3092  0.0300 -0.0217
 2382SOL    HW1 8340   7.015   5.466   2.602  0.2644 -0.1316  0.4203
 2382SOL    HW2 8341   7.122   5.571   2.627 -0.0387 -0.1074  1.6934
 2383SOL     OW 8342   4.634   3.235   5.337  0.1981  0.2927  0.2216
 2383SOL    HW1 8343   4.619   3.270   5.424 -2.0298  0.5731 -0.2140
 2383SOL    HW2 8344   4.699   3.166   5.349  2.1385  2.2507  1.6015
 2384SOL     OW 8345   4.101   2.653   2.119 -0.3576  1.0549 -0.3213
 2384SOL    HW1 8346   4.054   2.586   2.168  2.2269 -1.3215 -0.8463
 2384SOL    HW2 8347   4.145   2.705   2.187 -0.8917  1.0253  0.0475
 2385SOL     OW 8348   3.238   6.860   5.581 -0.2978 -0.1599 -0.1019
 2385SOL    HW1 8349   3.319   6.887   5.539  0.3485 -2.5129 -0.5178
 2385SOL    HW2 8350   3.256   6.771   5.613 -2.2085 -0.1385  1.1821
 2386SOL     OW 8351   7.867   1.733   4.610  0.3548 -0.1299  0.4926
 2386SOL    HW1 8352   7.810   1.744   4.534 -2.0615 -0.4587  2.1562
 2386SOL    HW2 8353   7.897   1.821   4.630 -2.1978  0.6287  1.4172
 2387SOL     OW 8354   8.403   4.723   2.273 -0.0253  0.0837  0.5591
 2387SOL    HW1 8355   8.371   4.784   2.339  1.1199  0.5955  0.6623
 2387SOL    HW2 8356   8.479   4.767   2.235  0.8306 -1.2793  0.6407
 2388SOL     OW 8357   7.805   6.770   3.276  0.1253 -0.0050  0.4594
 2388SOL    HW1 8358   7.761   6.790   3.194 -0.4325 -3.4751 -0.2280
 2388SOL    HW2 8359   7.755   6.817   3.343 -1.0558  0.7033 -0.8778
 2389SOL     OW 8360   0.080   5.269   6.699  0.1602  0.4430 -0.0777
 2389SOL    HW1 8361   0.128   5.341   6.741 -0.4813  0.8494 -0.0231
 2389SOL    HW2 8362   0.043   5.219   6.772  0.5794  0.0673 -0.1161
 2390SOL     OW 8363   3.212   4.899   5.905 -0.0208  0.5059  0.0336
 2390SOL    HW1 8364   3.144   4.924   5.842  0.5621  1.0249 -0.3924
 2390SOL    HW2 8365   3.165   4.845   5.969 -0.5078 -0.5520 -1.1677
 2391SOL     OW 8366   1.407   7.117   2.554  0.6643 -0.3741 -0.6702
 2391SOL    HW1 8367   1.386   7.198   2.507 -0.2432  0.4861  1.1138
 2391SOL    HW2 8368   1.399   7.048   2.488 -0.1694  0.8075 -1.8666
 2392SOL     OW 8369   7.731   2.657   4.478 -0.3793  0.3052  0.3947
 2392SOL    HW1 8370   7.799   2.719   4.505 -1.1344  2.1335 -1.5960
 2392SOL    HW2 8371   7.650   2.708   4.479 -1.2628 -1.0291 -0.0667
 2393SOL     OW 8372   0.742   6.112   3.788  0.1095 -0.1417  0.0538
 2393SOL    HW1 8373   0.803   6.061   3.841  0.9693  0.2881 -0.4977
 2393SOL    HW2 8374   0.790   6.129   3.707 -0.0868  1.6572  0.2846
 2394SOL     OW 8375   3.489   5.432   4.438  0.1680 -1.0120  0.0798
 2394SOL    HW1 8376   3.485   5.353   4.384  1.0272 -2.3998  1.9489
 2394SOL    HW2 8377   3.575   5.429   4.480  0.1156  0.7974  0.4069
 2395SOL     OW 8378   2.272   7.597   1.370 -0.1565  0.1249 -0.3601
 2395SOL    HW1 8379   2.201   7.660   1.380  0.0424  0.0716  1.8088
 2395SOL    HW2 8380   2.350   7.651   1.355 -0.0876  0.3933  0.8751
 2396SOL     OW 8381   7.050   3.425   2.872  0.3502 -0.1685  0.5031
 2396SOL    HW1 8382   7.132   3.469   2.849 -0.5641 -0.1501 -3.5460
 2396SOL    HW2 8383   6.992   3.495   2.901  0.2636  0.7247 -1.6577
 2397SOL     OW 8384   1.910   0.665   0.507 -0.0663  0.2800 -0.7117
 2397SOL    HW1 8385   2.006   0.666   0.513 -0.0753 -2.0319  1.2688
 2397SOL    HW2 8386   1.880   0.670   0.598 -1.7248 -1.2582 -1.1138
 2398SOL     OW 8387   5.446   4.058   8.171  1.1472  0.2256  0.4014
 2398SOL    HW1 8388   5.388   4.045   8.246  0.4085  0.6146 -0.0887
 2398SOL    HW2 8389   5.534   4.047   8.207  0.7591 -0.9644  1.0390
 2399SOL     OW 8390   0.738   1.697   2.232 -0.3918  0.0814  0.1774
 2399SOL    HW1 8391   0.687   1.655   2.163 -0.0392  0.8872 -0.5862
 2399SOL    HW2 8392   0.805   1.632   2.254 -2.3838 -1.5097  2.0581
 2400SOL     OW 8393   2.445   0.541   8.469 -0.3469  0.1483 -0.3178
 2400SOL    HW1 8394   2.507   0.469   8.476 -0.5012 -0.0283 -0.7592
 2400SOL    HW2 8395   2.378   0.510   8.408 -0.1252  0.8697 -0.9498
 2401SOL     OW 8396   3.378   5.949   8.152 -0.2545 -1.0810  0.5268
 2401SOL    HW1 8397   3.413   5.941   8.063 -0.8296 -0.0071  0.1829
 2401SOL    HW2 8398   3.438   6.010   8.196 -2.4739  2.2290 -0.5986
 2402SOL     OW 8399   3.617   6.746   8.028 -0.1059  0.0574  0.4844
 2402SOL    HW1 8400   3.613   6.829   7.980  1.9922  0.4092  0.8237
 2402SOL    HW2 8401   3.643   6.771   8.117 -0.5227 -0.8922  0.8959
 2403SOL     OW 8402   7.344   6.682   6.084  0.6722  0.2167  0.0869
 2403SOL    HW1 8403   7.275   6.743   6.110 -1.0289 -0.3578 -2.7482
 2403SOL    HW2 8404   7.406   6.736   6.034 -1.0221 -0.2867 -2.7436
 2404SOL     OW 8405   6.151   4.763   2.026 -0.3109  0.0059  0.0153
 2404SOL    HW1 8406   6.165   4.830   2.093  0.4225 -1.7627  1.7058
 2404SOL    HW2 8407   6.057   4.766   2.009 -0.3798  1.0658  0.4875
 2405SOL     OW 8408   5.546   4.959   6.561  0.0287 -0.1401  0.2174
 2405SOL    HW1 8409   5.578   5.046   6.539 -1.0162  0.5035  1.1056
 2405SOL    HW2 8410   5.592   4.900   6.502  1.9672  0.8328  0.6788
 2406SOL     OW 8411   3.350   3.107   3.265  0.2585  0.4195 -0.3282
 2406SOL    HW1 8412   3.286   3.143   3.327 -1.4749 -0.1626 -1.7074
 2406SOL    HW2 8413   3.298   3.056   3.203  2.1163 -0.3810 -1.3164
 2407SOL     OW 8414   6.613   6.931   4.477  0.2635  0.2224  0.1626
 2407SOL    HW1 8415   6.584   6.854   4.526 -0.1025 -0.1419 -0.6066
 2407SOL    HW2 8416   6.708   6.920   4.470  0.5362  1.0098  1.9892
 2408SOL     OW 8417   3.677   3.427   4.715  0.3223  0.2227 -0.2746
 2408SOL    HW1 8418   3.673   3.446   4.621  0.5112  1.6695 -0.0170
 2408SOL    HW2 8419   3.591   3.453   4.748  0.4930  0.3618  0.0607
 2409SOL     OW 8420   0.469   4.254   2.007  0.5178  0.2419  0.2373
 2409SOL    HW1 8421   0.382   4.217   2.019 -0.3751  2.0031 -0.3670
 2409SOL    HW2 8422   0.489   4.240   1.914 -0.3965  2.2839 -0.3271
 2410SOL     OW 8423   0.756   4.172   7.644 -0.3930  0.5755  0.0858
 2410SOL    HW1 8424   0.780   4.247   7.699  2.1424  0.2495 -0.4797
 2410SOL    HW2 8425   0.790   4.194   7.557 -1.1098 -0.5165 -0.4977
 2411SOL     OW 8426   0.164   3.406   7.831  0.1127 -0.2007 -0.1459
 2411SOL    HW1 8427   0.209   3.331   7.870  1.0066  1.9409  3.4097
 2411SOL    HW2 8428   0.234   3.467   7.808 -0.6766  0.3039 -1.3230
 2412SOL     OW 8429   5.584   1.904   0.227  0.2416  0.7864  0.2314
 2412SOL    HW1 8430   5.593   1.871   0.317  0.5545  2.4617  0.8454
 2412SOL    HW2 8431   5.604   1.828   0.172 -0.9308 -0.5451  1.5397
 2413SOL     OW 8432   2.494   0.498   6.353 -0.4447  0.5923 -0.1332
 2413SOL    HW1 8433   2.463   0.563   6.290  1.7995  1.3603 -0.5423
 2413SOL    HW2 8434   2.576   0.466   6.316  0.1052 -0.1529  1.6203
 2414SOL     OW 8435   2.093   6.279   2.787 -0.3259  0.0162  0.1285
 2414SOL    HW1 8436   2.171   6.226   2.805 -0.2907  0.6095  1.9197
 2414SOL    HW2 8437   2.065   6.251   2.700  2.6681  0.7385 -1.2225
 2415SOL     OW 8438   3.709   5.543   2.284  0.5916 -0.5118 -0.3703
 2415SOL    HW1 8439   3.655   5.532   2.362  2.5934 -0.2527  1.1409
 2415SOL    HW2 8440   3.726   5.637   2.280  0.6542 -0.5478 -1.0051
 2416SOL     OW 8441   4.200   8.430   3.998  0.1110  0.2211  0.5978
 2416SOL    HW1 8442   4.109   8.431   3.970  0.7749  1.5362 -1.7846
 2416SOL    HW2 8443   4.237   8.510   3.962  2.3401 -0.5435  1.0183
 2417SOL     OW 8444   0.067   6.912   6.240 -0.1215  0.2907  0.1179
 2417SOL    HW1 8445   0.153   6.873   6.254 -0.0714  0.8357  1.5370
 2417SOL    HW2 8446   0.045   6.891   6.150  0.7331 -1.3678  0.2596
 2418SOL     OW 8447   3.504   5.857   7.564 -0.2194  0.7694  0.4752
 2418SOL    HW1 8448   3.439   5.789   7.580  1.2972 -0.9394 -0.3448
 2418SOL    HW2 8449   3.466   5.936   7.603 -2.9032 -0.0676 -0.2327
 2419SOL     OW 8450   3.049   8.212   6.792  0.2518  0.2762 -0.3215
 2419SOL    HW1 8451   3.141   8.199   6.812  0.3604 -0.2451 -1.1156
 2419SOL    HW2 8452   3.021   8.281   6.852  0.6827 -0.8314  1.1990
 2420SOL     OW 8453   0.403   0.461   6.093  0.2496 -0.5413  0.4121
 2420SOL    HW1 8454   0.370   0.379   6.056  2.6902 -1.9558  1.1116
 2420SOL    HW2 8455   0.358   0.471   6.176  1.0822 -2.1178  1.0975
 2421SOL     OW 8456   6.900   2.974   1.992  0.3037 -0.3844 -0.5098
 2421SOL    HW1 8457   6.859   3.037   2.051 -0.5389 -1.7932  0.4528
 2421SOL    HW2 8458   6.903   3.019   1.907 -3.2072 -0.1404 -0.6602
 2422SOL     OW 8459   5.304   6.786   0.999  0.1736  0.8693  0.3319
 2422SOL    HW1 8460   5.218   6.818   1.028 -0.5025 -0.2415 -0.3531
 2422SOL    HW2 8461   5.346   6.755   1.078 -1.3847 -1.5359  0.3136
 2423SOL     OW 8462   6.761   4.757   2.947  0.2612 -0.5112 -0.0480
 2423SOL    HW1 8463   6.853   4.776   2.968 -0.2576 -1.6957  4.0095
 2423SOL    HW2 8464   6.755   4.661   2.953 -1.3130 -0.4184  0.0803
 2424SOL     OW 8465   7.695   5.773   8.196 -0.3534 -0.1011  0.1439
 2424SOL    HW1 8466   7.616   5.798   8.148  0.2064  1.0078 -0.2278
 2424SOL    HW2 8467   7.663   5.718   8.268 -1.2973 -1.0720 -0.9685
 2425SOL     OW 8468   8.511   1.394   8.164 -0.3457 -0.3735 -0.4435
 2425SOL    HW1 8469   8.456   1.414   8.240  0.2288 -1.6626  0.3418
 2425SOL    HW2 8470   8.592   1.443   8.179 -0.4416 -0.1992 -0.4968
 2426SOL     OW 8471   3.379   5.117   7.613  0.0912  0.1651 -0.1473
 2426SOL    HW1 8472   3.397   5.169   7.691  2.1234 -0.5751 -0.0736
 2426SOL    HW2 8473   3.286   5.133   7.594 -1.1227 -1.2845  3.6604
 2427SOL     OW 8474   1.729   4.672   8.113  0.0786  0.2896 -0.3423
 2427SOL    HW1 8475   1.652   4.622   8.138  0.0269  0.3701 -0.3412
 2427SOL    HW2 8476   1.732   4.745   8.174  0.8586 -0.3824  0.4669
 2428SOL     OW 8477   3.272   7.826   4.965  0.4449 -0.4098 -0.1810
 2428SOL    HW1 8478   3.261   7.755   4.902 -1.1438 -0.4171  0.0655
 2428SOL    HW2 8479   3.331   7.888   4.922  0.3664 -0.9997 -1.1541
 2429SOL     OW 8480   5.546   3.804   3.682  0.3605 -0.0021  0.0004
 2429SOL    HW1 8481   5.492   3.741   3.636  0.9253 -0.3787 -0.1614
 2429SOL    HW2 8482   5.620   3.819   3.623  0.2538  0.7770  0.0528
 2430SOL     OW 8483   7.231   6.722   8.502  0.1467 -0.0439 -0.0940
 2430SOL    HW1 8484   7.144   6.752   8.527  0.9955  1.1181  1.7378
 2430SOL    HW2 8485   7.217   6.636   8.462 -1.8030 -0.0251  0.4679
 2431SOL     OW 8486   4.313   4.345   3.260 -0.3575 -0.0279 -0.7181
 2431SOL    HW1 8487   4.406   4.320   3.256 -0.1327  0.1299  1.8538
 2431SOL    HW2 8488   4.311   4.436   3.231  0.2134 -0.1884 -1.2804
 2432SOL     OW 8489   6.935   6.057   3.052 -0.1967  0.1188 -0.1038
 2432SOL    HW1 8490   6.886   6.122   3.102 -0.2597 -0.8117  1.0787
 2432SOL    HW2 8491   6.893   6.058   2.966 -0.6250  1.1505  0.0928
 2433SOL     OW 8492   1.523   2.519   2.090 -0.2411 -0.5738  0.0458
 2433SOL    HW1 8493   1.469   2.562   2.024 -0.2956 -1.6140 -0.6115
 2433SOL    HW2 8494   1.508   2.569   2.170 -1.5436 -0.3433 -0.3174
 2434SOL     OW 8495   7.818   5.048   6.650 -0.1329  0.1217 -0.0438
 2434SOL    HW1 8496   7.804   4.994   6.728  0.0327 -1.0976 -0.8224
 2434SOL    HW2 8497   7.909   5.075   6.656  1.2287 -3.3503 -1.7211
 2435SOL     OW 8498   0.076   0.010   4.123  0.5638  0.1404  0.3399
 2435SOL    HW1 8499   0.076   0.083   4.185 -2.5560 -0.3715  1.1462
 2435SOL    HW2 8500   0.156  -0.039   4.144  0.4281  0.8674  2.9043
 2436SOL     OW 8501   7.856   8.060   7.063  0.3845  0.0389  0.0699
 2436SOL    HW1 8502   7.899   8.143   7.042 -1.3804  0.8431 -0.5992
 2436SOL    HW2 8503   7.767   8.085   7.087  0.2104 -1.5658  1.2033
 2437SOL     OW 8504   4.864   4.404   2.273 -0.2441 -0.5150  0.0724
 2437SOL    HW1 8505   4.859   4.485   2.222  0.6043  0.3268  1.2848
 2437SOL    HW2 8506   4.958   4.388   2.283 -0.3396 -0.0468  2.2485
 2438SOL     OW 8507   3.856   5.000   6.339 -0.2383 -0.1149 -0.3689
 2438SOL    HW1 8508   3.804   4.943   6.283  0.0206  0.3383 -1.0894
 2438SOL    HW2 8509   3.947   4.979   6.316 -0.1389  0.4728 -0.5284
 2439SOL     OW 8510   1.129   7.021   1.208  0.1346 -0.2711  0.3338
 2439SOL    HW1 8511   1.113   7.001   1.116  1.0147  0.3685  0.0362
 2439SOL    HW2 8512   1.069   7.094   1.227 -0.3339 -0.6639  0.3839
 2440SOL     OW 8513   2.455   3.216   1.131 -0.4859  0.3314  0.3219
 2440SOL    HW1 8514   2.497   3.302   1.119  0.4155 -0.2535 -0.9889
 2440SOL    HW2 8515   2.417   3.196   1.046 -0.4191 -0.7076  0.5253
 2441SOL     OW 8516   2.846   0.704   5.919  0.1290  0.2534 -0.3138
 2441SOL    HW1 8517   2.910   0.772   5.940 -0.7355  0.9781  0.0415
 2441SOL    HW2 8518   2.898   0.624   5.912  1.0677  0.8144 -0.0031
 2442SOL     OW 8519   1.264   3.471   7.164  0.3093  0.1129  0.6051
 2442SOL    HW1 8520   1.252   3.495   7.256 -0.9630 -1.0344  0.7742
 2442SOL    HW2 8521   1.274   3.376   7.165  2.2911  0.2561 -0.2883
 2443SOL     OW 8522   0.378   3.209   3.736  0.3134  0.4686  0.1863
 2443SOL    HW1 8523   0.339   3.296   3.745  1.1049  1.0461 -1.4639
 2443SOL    HW2 8524   0.349   3.178   3.650 -1.7794 -1.9240  1.6265
 2444SOL     OW 8525   3.179   0.950   6.996  0.2128  0.4000  0.6097
 2444SOL    HW1 8526   3.120   0.999   6.938  1.3597  0.4975 -0.5251
 2444SOL    HW2 8527   3.232   1.017   7.038  1.6574  0.2119 -0.8054
 2445SOL     OW 8528   1.745   0.847   7.461  0.0664  0.0027  0.1378
 2445SOL    HW1 8529   1.829   0.891   7.471  0.5761 -0.8252 -0.3579
 2445SOL    HW2 8530   1.736   0.795   7.540 -0.6041  1.0725  0.7911
 2446SOL     OW 8531   2.245   1.328   2.989 -0.1426  0.5438  0.3294
 2446SOL    HW1 8532   2.263   1.422   2.993 -1.1414  0.7271  0.6892
 2446SOL    HW2 8533   2.150   1.321   2.992 -0.1291 -0.4385 -0.7621
 2447SOL     OW 8534   0.146   0.898   5.392  0.1699 -0.3471 -0.3063
 2447SOL    HW1 8535   0.190   0.828   5.440 -1.6938 -0.9082  0.6891
 2447SOL    HW2 8536   0.191   0.902   5.308  1.0990 -1.9080  0.0872
 2448SOL     OW 8537   5.878   3.491   0.722  0.8037 -0.0469 -0.3283
 2448SOL    HW1 8538   5.816   3.559   0.695  0.1255 -0.3221  0.5039
 2448SOL    HW2 8539   5.866   3.483   0.816  2.2277 -0.0047 -0.1219
 2449SOL     OW 8540   4.247   2.196   4.584  0.0833 -0.3645 -0.5304
 2449SOL    HW1 8541   4.214   2.251   4.655 -2.0325 -2.3119  0.1225
 2449SOL    HW2 8542   4.169   2.169   4.536  1.4416  1.0442 -3.8435
 2450SOL     OW 8543   3.208   3.114   5.188  0.1662  0.0958 -0.3258
 2450SOL    HW1 8544   3.253   3.030   5.185 -0.5505 -0.3344  0.5310
 2450SOL    HW2 8545   3.278   3.179   5.191  0.7387 -0.3820 -2.2780
 2451SOL     OW 8546   2.215   2.046   5.145 -0.2395  0.6020 -0.4866
 2451SOL    HW1 8547   2.125   2.069   5.119 -0.3823 -1.5763 -2.1426
 2451SOL    HW2 8548   2.270   2.096   5.085 -0.3625  0.9107 -0.3489
 2452SOL     OW 8549   0.910   2.206   1.091 -0.0993  0.2991 -0.7982
 2452SOL    HW1 8550   0.946   2.131   1.043 -1.6482 -1.3525  0.4244
 2452SOL    HW2 8551   0.978   2.230   1.154 -0.3170 -1.5217  0.2117
 2453SOL     OW 8552   1.191   4.204   4.411 -0.0819 -0.6301 -0.3461
 2453SOL    HW1 8553   1.129   4.133   4.391  0.0330 -1.0958  0.8661
 2453SOL    HW2 8554   1.240   4.172   4.486  0.9083  0.1921 -0.6265
 2454SOL     OW 8555   1.873   6.766   4.555 -0.2050 -0.5220  1.2245
 2454SOL    HW1 8556   1.858   6.813   4.637  0.1581  0.0145  0.9853
 2454SOL    HW2 8557   1.827   6.682   4.567 -1.0248 -0.0374  1.5779
 2455SOL     OW 8558   5.734   4.205   4.978  0.0336  0.5135 -0.0830
 2455SOL    HW1 8559   5.703   4.294   4.996  0.6973  0.7738 -0.1842
 2455SOL    HW2 8560   5.667   4.148   5.015 -0.2679  1.0576  0.2212
 2456SOL     OW 8561   3.840   6.495   1.464 -0.2533  0.0438  0.6700
 2456SOL    HW1 8562   3.853   6.553   1.389  1.5336 -0.4186  0.5661
 2456SOL    HW2 8563   3.761   6.527   1.506 -0.1473  1.6070 -0.2375
 2457SOL     OW 8564   4.510   2.415   1.690 -0.5866 -0.1559 -0.5472
 2457SOL    HW1 8565   4.458   2.341   1.656 -0.8845  0.9633 -2.7291
 2457SOL    HW2 8566   4.450   2.489   1.687  0.8079  0.9915 -2.2856
 2458SOL     OW 8567   3.233   4.412   6.727  0.5239  0.4169  0.2319
 2458SOL    HW1 8568   3.193   4.484   6.777 -1.9082 -0.9462  0.4104
 2458SOL    HW2 8569   3.221   4.438   6.636  0.7973  0.8083  0.3051
 2459SOL     OW 8570   7.879   2.706   6.718  0.3800 -0.1926 -0.5039
 2459SOL    HW1 8571   7.860   2.794   6.749 -2.3613  0.0252 -2.4765
 2459SOL    HW2 8572   7.804   2.654   6.745  0.1982 -1.0489 -2.4916
 2460SOL     OW 8573   6.224   6.518   7.663 -0.1080 -0.0091  0.1753
 2460SOL    HW1 8574   6.319   6.511   7.673 -0.0018 -2.3460 -1.7548
 2460SOL    HW2 8575   6.189   6.444   7.713 -0.8762  0.3428  0.1674
 2461SOL     OW 8576   2.138   6.719   6.520  0.5075  0.4566 -0.0204
 2461SOL    HW1 8577   2.077   6.783   6.482 -3.4998 -1.6029  2.3043
 2461SOL    HW2 8578   2.153   6.656   6.449  2.2214  2.3116 -1.4314
 2462SOL     OW 8579   6.591   1.466   5.142  0.4642  0.3152 -0.0288
 2462SOL    HW1 8580   6.670   1.495   5.096  0.7340  0.9791  0.8063
 2462SOL    HW2 8581   6.611   1.483   5.235  1.1872 -3.7981  0.7387
 2463SOL     OW 8582   4.336   6.204   7.126  0.6667 -0.7928  0.1684
 2463SOL    HW1 8583   4.430   6.195   7.141  1.3351  1.5212 -1.9833
 2463SOL    HW2 8584   4.304   6.250   7.204  1.6120 -0.2386  0.2461
 2464SOL     OW 8585   7.860   4.413   8.052 -0.5161  0.1178 -0.1212
 2464SOL    HW1 8586   7.949   4.420   8.018 -1.4039 -1.0279 -2.9976
 2464SOL    HW2 8587   7.868   4.359   8.130  1.3047  0.0301 -0.3438
 2465SOL     OW 8588   2.871   8.429   8.367  0.0369 -0.1049  0.0774
 2465SOL    HW1 8589   2.815   8.369   8.317  0.8942  0.3535 -1.4982
 2465SOL    HW2 8590   2.891   8.382   8.448 -2.1874 -0.4851  0.4770
 2466SOL     OW 8591   1.520   8.153   2.839  0.1763  0.0023  0.1982
 2466SOL    HW1 8592   1.489   8.239   2.866 -2.3718 -1.0705  0.9986
 2466SOL    HW2 8593   1.595   8.135   2.897  1.7995  2.2474 -1.0570
 2467SOL     OW 8594   8.002   1.720   4.107  0.0034 -0.4607  0.2936
 2467SOL    HW1 8595   7.911   1.693   4.120 -0.4882  0.8942 -0.1337
 2467SOL    HW2 8596   7.998   1.781   4.033  0.8840  1.4068  1.6981
 2468SOL     OW 8597   6.478   1.007   0.927 -0.2742 -0.1119 -0.3791
 2468SOL    HW1 8598   6.529   1.066   0.982  0.6710 -1.9846  0.8696
 2468SOL    HW2 8599   6.392   1.002   0.969 -0.2644  0.1574 -0.3297
 2469SOL     OW 8600   3.807   0.404   4.090 -0.5216  0.4444  0.4735
 2469SOL    HW1 8601   3.882   0.439   4.043 -0.5524 -2.2704 -1.8835
 2469SOL    HW2 8602   3.731   0.437   4.042 -0.7492  1.0444  1.2310
 2470SOL     OW 8603   1.700   4.936   7.723  0.1660  0.2205  0.1278
 2470SOL    HW1 8604   1.784   4.977   7.739  0.6343 -0.1186 -1.2834
 2470SOL    HW2 8605   1.721   4.845   7.702 -0.6097 -0.0247  0.3475
 2471SOL     OW 8606   1.623   1.292   5.725  0.3427 -0.7868  0.5642
 2471SOL    HW1 8607   1.687   1.250   5.784  1.5646 -0.7401 -0.6614
 2471SOL    HW2 8608   1.653   1.382   5.718 -0.5688 -0.4505  0.8812
 2472SOL     OW 8609   8.584   4.423   6.604  0.4493 -0.5658 -0.2274
 2472SOL    HW1 8610   8.604   4.516   6.608 -0.7628 -0.2900  3.4241
 2472SOL    HW2 8611   8.492   4.419   6.577  0.3542 -0.6632  0.1081
 2473SOL     OW 8612   7.545   5.769   3.687  0.1536 -0.6192  0.0139
 2473SOL    HW1 8613   7.598   5.735   3.614  0.7232 -0.4708  0.3518
 2473SOL    HW2 8614   7.496   5.693   3.718 -0.1405 -0.6677 -0.5671
 2474SOL     OW 8615   6.380   4.219   0.062 -0.7467 -0.2726  0.7383
 2474SOL    HW1 8616   6.441   4.242  -0.008  0.2437  1.3666  2.0518
 2474SOL    HW2 8617   6.308   4.174   0.018  1.4495 -2.4294 -0.8709
 2475SOL     OW 8618   0.075   5.917   3.138 -0.6579 -0.6855 -0.5905
 2475SOL    HW1 8619   0.167   5.900   3.118 -0.5822 -0.5976 -0.3200
 2475SOL    HW2 8620   0.028   5.843   3.100 -0.7148  0.3811 -2.7187
 2476SOL     OW 8621   1.283   5.742   4.610 -0.0146  0.6509 -0.4138
 2476SOL    HW1 8622   1.250   5.732   4.699  1.1608 -1.0872 -0.1330
 2476SOL    HW2 8623   1.287   5.837   4.596 -2.6255  0.9694  0.4199
 2477SOL     OW 8624   5.728   0.154   1.146 -0.1053 -0.0105  0.1241
 2477SOL    HW1 8625   5.796   0.220   1.160  0.4654 -0.8685  1.7095
 2477SOL    HW2 8626   5.677   0.155   1.227  0.0681 -1.6598  0.2932
 2478SOL     OW 8627   4.300   0.831   3.828  0.5188 -0.4872  0.0878
 2478SOL    HW1 8628   4.357   0.908   3.838  0.1848 -0.3635  1.1506
 2478SOL    HW2 8629   4.229   0.846   3.890  0.2563 -1.4905  0.0376
 2479SOL     OW 8630   8.028   0.656   5.548 -0.1355  0.2914 -0.4434
 2479SOL    HW1 8631   7.989   0.584   5.596  0.7564 -0.2171 -0.4641
 2479SOL    HW2 8632   7.997   0.644   5.458 -0.3065  0.1639 -0.3677
 2480SOL     OW 8633   8.353   4.155   5.056 -0.9048 -0.6921 -0.2182
 2480SOL    HW1 8634   8.299   4.107   5.118 -0.9392  0.7613  0.9109
 2480SOL    HW2 8635   8.391   4.087   5.000 -0.9111 -2.0496  1.3541
 2481SOL     OW 8636   3.847   4.448   1.199  0.4159  0.1332  0.1818
 2481SOL    HW1 8637   3.941   4.447   1.220  0.5695  0.5768 -0.4771
 2481SOL    HW2 8638   3.804   4.429   1.283  1.1101 -0.7042  0.3639
 2482SOL     OW 8639   7.935   2.190   6.278 -0.5947  0.3603  0.1512
 2482SOL    HW1 8640   7.995   2.117   6.293  0.5081  1.3401  0.6820
 2482SOL    HW2 8641   7.992   2.266   6.266 -1.7051  1.5885  2.0261
 2483SOL     OW 8642   0.071   4.947   4.291  0.3968  0.3178  0.3153
 2483SOL    HW1 8643   0.162   4.974   4.285  1.2696 -2.3633 -0.0253
 2483SOL    HW2 8644   0.044   4.971   4.379  1.5267  0.8293  0.5398
 2484SOL     OW 8645   2.772   3.096   4.501 -0.1769 -0.4455  0.5244
 2484SOL    HW1 8646   2.678   3.113   4.504  0.1640  1.6402  3.5809
 2484SOL    HW2 8647   2.812   3.173   4.541  2.8343 -1.5600 -0.0586
 2485SOL     OW 8648   8.489   1.847   2.199  0.0037 -0.1596  0.0457
 2485SOL    HW1 8649   8.424   1.909   2.166  0.2026  0.6234  1.0747
 2485SOL    HW2 8650   8.450   1.761   2.184 -0.4950  0.2286 -0.9500
 2486SOL     OW 8651   6.816   2.156   8.383  0.4019  0.1981 -0.3609
 2486SOL    HW1 8652   6.902   2.127   8.416 -0.0862 -0.0317  0.7417
 2486SOL    HW2 8653   6.828   2.162   8.288  1.8595  0.8947 -0.1597
 2487SOL     OW 8654   4.043   7.661   1.735  0.3849  0.6123  0.6349
 2487SOL    HW1 8655   4.022   7.653   1.642  1.3266  0.7999  0.4001
 2487SOL    HW2 8656   4.123   7.611   1.746  0.8941  1.5064  1.1199
 2488SOL     OW 8657   4.006   4.556   2.829  0.3101  0.6466  0.2219
 2488SOL    HW1 8658   3.932   4.584   2.882 -2.2791 -1.9030 -1.7466
 2488SOL    HW2 8659   4.056   4.497   2.886 -0.8087  0.1689  0.7369
 2489SOL     OW 8660   4.102   4.304   7.601 -0.5164 -0.1851 -0.5301
 2489SOL    HW1 8661   4.023   4.265   7.638 -0.4048  0.1418  0.0625
 2489SOL    HW2 8662   4.171   4.240   7.620 -0.6716 -0.5760 -1.2478
 2490SOL     OW 8663   5.603   4.897   2.359  0.0107 -0.1106 -0.0115
 2490SOL    HW1 8664   5.616   4.881   2.453 -0.3780  1.0340  0.2500
 2490SOL    HW2 8665   5.528   4.955   2.355  0.9639  1.1044 -0.9334
 2491SOL     OW 8666   8.280   4.469   2.589 -0.2952 -0.1750  0.2133
 2491SOL    HW1 8667   8.240   4.387   2.618 -1.7194  0.4022 -0.0178
 2491SOL    HW2 8668   8.312   4.509   2.670  2.2541 -1.8092  0.1455
 2492SOL     OW 8669   3.090   2.281   2.671 -0.3227 -0.3704  0.3960
 2492SOL    HW1 8670   3.016   2.222   2.683 -0.8303  0.0001 -0.7327
 2492SOL    HW2 8671   3.093   2.332   2.751 -0.1082 -1.6511  1.2334
 2493SOL     OW 8672   7.657   2.990   7.266 -0.3682 -0.5053  0.0062
 2493SOL    HW1 8673   7.567   2.961   7.278 -0.2906 -1.5203 -1.5528
 2493SOL    HW2 8674   7.650   3.073   7.219 -0.4871 -0.7077 -0.3343
 2494SOL     OW 8675   4.221   3.941   1.755 -0.5586 -0.0834  0.1993
 2494SOL    HW1 8676   4.241   3.947   1.848 -1.3768 -0.9543  0.4405
 2494SOL    HW2 8677   4.299   3.899   1.717 -0.0259  0.6970  0.4017
 2495SOL     OW 8678   1.442   1.126   1.624 -0.3085 -0.2945 -0.5252
 2495SOL    HW1 8679   1.459   1.090   1.537 -0.6055  0.6737 -0.9993
 2495SOL    HW2 8680   1.528   1.137   1.664 -0.1935 -1.1055 -0.5394
 2496SOL     OW 8681   2.082   5.203   7.132 -0.2623 -0.3034  0.0227
 2496SOL    HW1 8682   2.068   5.283   7.080 -1.3942 -1.0896 -0.9305
 2496SOL    HW2 8683   2.168   5.172   7.105 -0.8937 -0.7818 -1.5467
 2497SOL     OW 8684   2.734   7.964   0.319  0.1595  1.0176 -0.0421
 2497SOL    HW1 8685   2.770   7.875   0.316  0.2530  1.0767 -0.6991
 2497SOL    HW2 8686   2.753   7.994   0.408 -1.1228 -0.1406  0.6549
 2498SOL     OW 8687   6.711   2.341   8.536 -0.2746 -0.3981  0.3365
 2498SOL    HW1 8688   6.716   2.411   8.470  1.3331 -0.5504  0.2599
 2498SOL    HW2 8689   6.735   2.261   8.488 -1.6991 -0.9535  0.5166
 2499SOL     OW 8690   6.479   7.837   3.250 -0.2916  0.5962 -0.0668
 2499SOL    HW1 8691   6.462   7.755   3.295  0.2308  0.2053 -0.5809
 2499SOL    HW2 8692   6.397   7.856   3.203  0.2276 -0.6506 -1.5369
 2500SOL     OW 8693   3.703   3.648   6.018 -0.4462 -0.2002 -0.6302
 2500SOL    HW1 8694   3.774   3.665   6.079 -2.1518  3.5455  0.6438
 2500SOL    HW2 8695   3.730   3.689   5.936 -0.6100  0.0950 -0.5370
 2501SOL     OW 8696   4.820   4.115   7.245  0.0999  0.2373  0.3655
 2501SOL    HW1 8697   4.834   4.023   7.268  1.4765  0.0729 -0.9596
 2501SOL    HW2 8698   4.856   4.164   7.319 -0.5725 -0.2723  1.0458
 2502SOL     OW 8699   7.866   2.740   0.834  0.3815 -0.0646  0.2310
 2502SOL    HW1 8700   7.884   2.667   0.893 -0.7366 -0.5599 -0.0189
 2502SOL    HW2 8701   7.786   2.780   0.867  0.2500  0.2230 -0.4065
 2503SOL     OW 8702   2.536   4.515   2.745  0.0958 -0.1373 -0.1447
 2503SOL    HW1 8703   2.543   4.603   2.709 -2.2286 -0.0497 -0.5036
 2503SOL    HW2 8704   2.620   4.501   2.789  0.4978  2.2714 -0.0080
 2504SOL     OW 8705   0.715   7.956   7.895  0.0158  0.0723  0.3738
 2504SOL    HW1 8706   0.796   7.911   7.920  0.2933 -0.0909 -0.7508
 2504SOL    HW2 8707   0.743   8.020   7.829 -0.8900 -0.6815 -0.7864
 2505SOL     OW 8708   0.504   3.577   7.930 -0.1389 -0.4229 -0.3565
 2505SOL    HW1 8709   0.572   3.573   7.863 -0.5441 -1.0199 -0.7391
 2505SOL    HW2 8710   0.458   3.659   7.913  1.8239  1.1323  1.2407
 2506SOL     OW 8711   2.688   1.384   1.248  0.2179 -0.5801 -0.4339
 2506SOL    HW1 8712   2.685   1.390   1.152 -0.7386 -0.3801 -0.3999
 2506SOL    HW2 8713   2.624   1.316   1.269 -0.9935  0.7264  0.1723
 2507SOL     OW 8714   5.422   4.268   2.554 -0.6665  0.0718  0.3361
 2507SOL    HW1 8715   5.363   4.343   2.540 -1.0249 -0.4782 -1.1829
 2507SOL    HW2 8716   5.510   4.306   2.547 -0.8014  0.7091  1.6316
 2508SOL     OW 8717   1.186   7.844   1.394  0.0460 -0.3055  0.2725
 2508SOL    HW1 8718   1.218   7.763   1.355 -2.0846 -0.2142 -1.9052
 2508SOL    HW2 8719   1.221   7.913   1.337 -2.0020 -0.0763 -0.8123
 2509SOL     OW 8720   4.290   0.701   1.149  0.4859 -0.3902 -0.1608
 2509SOL    HW1 8721   4.262   0.744   1.068 -1.8318 -0.8163  0.3369
 2509SOL    HW2 8722   4.312   0.612   1.123  0.1881 -0.3944 -0.4056
 2510SOL     OW 8723   4.481   2.041   4.572  0.3795 -0.6060 -0.1122
 2510SOL    HW1 8724   4.456   1.960   4.527  0.9549 -1.4572  1.0482
 2510SOL    HW2 8725   4.399   2.086   4.588 -0.1520 -1.8395  0.8137
 2511SOL     OW 8726   8.102   2.501   0.055 -0.1877 -0.1826 -0.2404
 2511SOL    HW1 8727   8.047   2.447   0.113 -0.7077 -1.2454 -1.6404
 2511SOL    HW2 8728   8.053   2.582   0.044 -1.3784 -1.0023 -1.2293
 2512SOL     OW 8729   2.926   2.899   4.146 -0.0396  0.6350  0.5730
 2512SOL    HW1 8730   3.017   2.889   4.119  0.3318  1.4115  1.4638
 2512SOL    HW2 8731   2.927   2.976   4.202 -0.8633 -0.5140  2.2569
 2513SOL     OW 8732   6.427   4.782   6.253  0.3526  0.6211 -0.5106
 2513SOL    HW1 8733   6.426   4.787   6.158  0.7217 -0.0037 -0.5547
 2513SOL    HW2 8734   6.503   4.833   6.279  1.5512 -0.9842 -0.6957
 2514SOL     OW 8735   3.087   8.128   5.268 -0.1735 -0.3885  0.1428
 2514SOL    HW1 8736   3.179   8.131   5.293 -0.2683 -0.6248  0.5274
 2514SOL    HW2 8737   3.044   8.192   5.325 -0.1915  0.0108 -0.3037
 2515SOL     OW 8738   7.002   4.602   8.534 -0.4797 -0.2101 -0.2668
 2515SOL    HW1 8739   6.921   4.552   8.528  0.1794 -1.3529  0.0866
 2515SOL    HW2 8740   6.995   4.650   8.617  0.3757 -2.4940  1.2045
 2516SOL     OW 8741   0.932   4.877   1.707 -0.1743 -0.6971  0.0017
 2516SOL    HW1 8742   0.905   4.935   1.778  0.6993  0.6598 -0.7411
 2516SOL    HW2 8743   0.977   4.804   1.751 -0.2969 -0.2509  0.8792
 2517SOL     OW 8744   1.247   6.135   7.875 -0.1753  0.0905 -0.0702
 2517SOL    HW1 8745   1.189   6.136   7.951  0.1140  0.5284  0.1513
 2517SOL    HW2 8746   1.263   6.042   7.858  0.6746 -0.0143  1.1202
 2518SOL     OW 8747   0.824   4.447   1.037 -0.0155 -0.2683  0.2102
 2518SOL    HW1 8748   0.738   4.490   1.038 -0.5976 -1.2890 -1.7293
 2518SOL    HW2 8749   0.804   4.354   1.029  1.2458 -0.4759 -0.8853
 2519SOL     OW 8750   3.440   5.472   1.028  0.7101 -0.1234  0.5425
 2519SOL    HW1 8751   3.410   5.441   1.114  0.4333 -0.8906  0.1792
 2519SOL    HW2 8752   3.409   5.562   1.023 -0.2151 -0.4104  0.8204
 2520SOL     OW 8753   2.754   3.901   2.920  0.0887 -0.9390 -0.0456
 2520SOL    HW1 8754   2.675   3.908   2.866 -0.4453 -0.9570  0.7080
 2520SOL    HW2 8755   2.805   3.831   2.879 -0.9747 -1.9521  0.2736
 2521SOL     OW 8756   6.578   2.066   2.322 -0.3928 -0.1456  0.3913
 2521SOL    HW1 8757   6.639   2.109   2.261 -1.5938  1.2263  0.0856
 2521SOL    HW2 8758   6.600   2.104   2.407  0.6751 -1.3734  0.6831
 2522SOL     OW 8759   0.113   5.074   7.262 -0.1401 -0.3954 -0.7793
 2522SOL    HW1 8760   0.116   5.056   7.356 -0.3909  2.2598 -0.1777
 2522SOL    HW2 8761   0.036   5.026   7.230  0.7455 -2.4686  0.0286
 2523SOL     OW 8762   1.313   0.254   6.611 -0.3181 -0.6533  0.1039
 2523SOL    HW1 8763   1.326   0.325   6.549 -0.1702 -2.2027 -1.7423
 2523SOL    HW2 8764   1.344   0.288   6.695 -0.1269  1.3664 -0.7436
 2524SOL     OW 8765   0.412   7.256   5.178 -0.5358 -0.4092  0.0044
 2524SOL    HW1 8766   0.432   7.168   5.147 -2.7383  0.0543 -3.1892
 2524SOL    HW2 8767   0.320   7.251   5.204 -0.8389  1.0445 -0.7116
 2525SOL     OW 8768   5.878   7.522   5.269  0.1381  0.3515 -0.2486
 2525SOL    HW1 8769   5.894   7.525   5.175 -0.3186  1.4682 -0.3033
 2525SOL    HW2 8770   5.823   7.598   5.287 -1.0255 -0.6614  0.6967
 2526SOL     OW 8771   0.035   3.854   2.613 -1.0360  0.0000 -0.4249
 2526SOL    HW1 8772   0.104   3.886   2.671 -0.1544 -2.2467 -0.1214
 2526SOL    HW2 8773  -0.041   3.844   2.670 -1.3915  1.6298 -0.5680
 2527SOL     OW 8774   3.606   0.775   8.031 -0.1616  0.1999  0.2790
 2527SOL    HW1 8775   3.696   0.807   8.022  0.4128 -1.3526  0.2907
 2527SOL    HW2 8776   3.553   0.843   7.990  0.9304  1.5199  0.9530
 2528SOL     OW 8777   7.954   1.510   5.672 -0.5803  0.0296  0.3112
 2528SOL    HW1 8778   7.934   1.417   5.679  4.0771 -1.2106  0.3390
 2528SOL    HW2 8779   7.961   1.540   5.763 -1.9605  0.4698  0.3011
 2529SOL     OW 8780   7.265   7.397   2.615 -0.7019  0.4812 -0.1728
 2529SOL    HW1 8781   7.262   7.485   2.652 -0.3107  0.4192  0.0117
 2529SOL    HW2 8782   7.303   7.408   2.528  0.1620  0.3923  0.1821
 2530SOL     OW 8783   8.405   7.466   6.088  0.4063 -0.1925 -0.1035
 2530SOL    HW1 8784   8.478   7.443   6.145  0.1242 -0.1349  0.2858
 2530SOL    HW2 8785   8.358   7.535   6.135  0.3433  0.0691 -0.5426
 2531SOL     OW 8786   7.864   3.732   8.047 -0.4298  0.0551 -0.3739
 2531SOL    HW1 8787   7.873   3.671   8.120 -0.7973 -0.2918 -0.6107
 2531SOL    HW2 8788   7.770   3.749   8.041 -0.2030  2.0961  0.8484
 2532SOL     OW 8789   7.425   7.760   2.371 -0.0424  0.5937 -0.7136
 2532SOL    HW1 8790   7.454   7.670   2.390  0.1528  0.9159  0.6099
 2532SOL    HW2 8791   7.409   7.760   2.277  1.0217 -0.5373 -0.9297
 2533SOL     OW 8792   4.938   3.880   6.183  0.3785 -0.2057 -0.0047
 2533SOL    HW1 8793   4.846   3.867   6.207  0.4798 -1.0212 -0.0015
 2533SOL    HW2 8794   4.940   3.870   6.087  0.4609 -0.1859 -0.0054
 2534SOL     OW 8795   4.355   1.211   5.660  0.0404 -0.2854  0.7058
 2534SOL    HW1 8796   4.421   1.280   5.655  0.6252 -0.8289  0.7222
 2534SOL    HW2 8797   4.271   1.257   5.662  0.0988  0.4289 -3.3086
 2535SOL     OW 8798   8.354   6.159   1.095 -0.1846 -0.1713 -0.8147
 2535SOL    HW1 8799   8.389   6.070   1.102  0.7217  0.2350  0.0514
 2535SOL    HW2 8800   8.259   6.147   1.096 -0.0878 -1.0695  0.3859
 2536SOL     OW 8801   0.126   2.635   5.239  0.2118  0.0176 -0.1357
 2536SOL    HW1 8802   0.176   2.580   5.300 -0.1747  0.3016  0.4508
 2536SOL    HW2 8803   0.070   2.689   5.296  1.0958  1.5305 -0.6609
 2537SOL     OW 8804   3.908   2.004   2.050 -0.1612  0.6329  0.0187
 2537SOL    HW1 8805   3.999   2.010   2.079 -0.5870 -1.3070  2.1006
 2537SOL    HW2 8806   3.909   1.940   1.980  0.1621  1.2779 -0.5813
 2538SOL     OW 8807   2.712   1.720   7.124 -0.0515 -0.0762 -0.1042
 2538SOL    HW1 8808   2.719   1.788   7.058 -4.1588 -1.4524 -2.2869
 2538SOL    HW2 8809   2.745   1.641   7.081  0.9589 -0.2766  0.9861
 2539SOL     OW 8810   4.279   0.532   8.007 -0.0627  0.1066  0.3866
 2539SOL    HW1 8811   4.258   0.582   7.928  0.2724 -0.4905 -0.0790
 2539SOL    HW2 8812   4.328   0.456   7.976 -0.2162 -0.3056  1.1360
 2540SOL     OW 8813   2.172   0.465   8.303  0.2437 -0.3866 -0.1744
 2540SOL    HW1 8814   2.148   0.530   8.237 -2.2726  1.5042  2.3102
 2540SOL    HW2 8815   2.121   0.388   8.281 -0.1561  0.0349 -0.7470
 2541SOL     OW 8816   2.597   2.983   1.162 -0.0297  0.0216 -0.1066
 2541SOL    HW1 8817   2.560   3.063   1.126 -0.7729 -0.2212  0.1082
 2541SOL    HW2 8818   2.523   2.923   1.170  0.1024  0.0485  1.8121
 2542SOL     OW 8819   3.552   6.334   3.068 -0.0825 -0.8860  0.4855
 2542SOL    HW1 8820   3.467   6.378   3.070  0.2792  0.0911  5.3541
 2542SOL    HW2 8821   3.616   6.404   3.060  0.3465 -0.6806  4.1397
 2543SOL     OW 8822   7.719   2.000   6.205  0.1903 -0.6173 -0.0270
 2543SOL    HW1 8823   7.776   2.064   6.246 -2.4179  1.2621  0.9536
 2543SOL    HW2 8824   7.694   2.040   6.121  0.4411 -1.5070 -0.5406
 2544SOL     OW 8825   3.291   3.313   1.086 -0.1293 -0.2822  0.1350
 2544SOL    HW1 8826   3.281   3.369   1.162 -0.7557  1.2817 -1.0603
 2544SOL    HW2 8827   3.385   3.297   1.080 -0.1021 -0.7671  1.4275
 2545SOL     OW 8828   4.717   7.003   3.948 -0.2943 -0.2493 -0.1147
 2545SOL    HW1 8829   4.675   7.044   4.023  0.6033 -0.2408  0.3877
 2545SOL    HW2 8830   4.776   6.937   3.985  0.4898  0.0523 -0.7811
 2546SOL     OW 8831   0.695   6.572   7.064 -0.5366  0.3618  0.1024
 2546SOL    HW1 8832   0.777   6.523   7.060 -0.4966  0.3244  1.1225
 2546SOL    HW2 8833   0.719   6.656   7.105 -1.2774 -0.3259  2.0936
 2547SOL     OW 8834   3.916   4.707   6.838  0.2966 -0.3210  0.2335
 2547SOL    HW1 8835   3.856   4.639   6.807  0.9503  0.1699 -2.2902
 2547SOL    HW2 8836   3.999   4.688   6.794  0.3162  2.4766 -1.1477
 2548SOL     OW 8837   2.520   2.133   2.145 -0.1870 -0.5245 -0.1894
 2548SOL    HW1 8838   2.550   2.159   2.058  1.5084  0.0586  0.5255
 2548SOL    HW2 8839   2.548   2.204   2.203 -2.0242 -0.5017  0.7375
 2549SOL     OW 8840   7.923   5.489   3.577 -0.0340  0.5171  0.3279
 2549SOL    HW1 8841   7.863   5.421   3.607  0.0267 -0.4621 -1.5917
 2549SOL    HW2 8842   8.009   5.458   3.605 -0.2172  0.9798  1.4487
 2550SOL     OW 8843   3.416   1.624   8.479  0.5228  0.1767  0.2443
 2550SOL    HW1 8844   3.458   1.563   8.418  0.2682  0.8635 -0.6304
 2550SOL    HW2 8845   3.434   1.711   8.443  0.7198  0.6327  1.3682
 2551SOL     OW 8846   0.754   0.663   5.673 -0.0747 -0.2889  0.4682
 2551SOL    HW1 8847   0.739   0.738   5.730  0.8989 -0.9788  1.6802
 2551SOL    HW2 8848   0.709   0.591   5.717 -2.0334 -0.2344 -1.2841
 2552SOL     OW 8849   3.225   2.093   2.523 -0.3293 -0.6060 -0.0237
 2552SOL    HW1 8850   3.180   2.162   2.570 -0.3303  1.0990 -2.3605
 2552SOL    HW2 8851   3.303   2.074   2.575 -1.3329 -0.2816  1.6501
 2553SOL     OW 8852   3.392   7.190   5.588  0.0967 -1.0110  0.0741
 2553SOL    HW1 8853   3.463   7.236   5.543  0.7025 -1.8315  0.1565
 2553SOL    HW2 8854   3.397   7.221   5.679 -0.0531 -0.6092 -0.0516
 2554SOL     OW 8855   1.148   1.372   1.985  0.1737 -0.9963 -0.7199
 2554SOL    HW1 8856   1.111   1.290   1.954  2.2799 -1.3825 -2.4518
 2554SOL    HW2 8857   1.240   1.368   1.961  0.5336  1.5162 -0.1035
 2555SOL     OW 8858   6.756   0.630   8.059 -0.0372 -0.2021 -0.2691
 2555SOL    HW1 8859   6.823   0.588   8.113  0.1276  0.1741 -0.1797
 2555SOL    HW2 8860   6.692   0.664   8.121  0.2969  0.4816 -0.2875
 2556SOL     OW 8861   0.993   3.436   1.957  0.0816 -0.0217 -0.2318
 2556SOL    HW1 8862   1.079   3.399   1.935 -0.1455 -0.6941 -0.0114
 2556SOL    HW2 8863   1.006   3.530   1.950  0.2434 -0.1472 -2.3947
 2557SOL     OW 8864   5.945   3.717   4.937  0.2232 -0.1474 -0.5075
 2557SOL    HW1 8865   5.957   3.809   4.913 -0.3538  0.0457 -0.0646
 2557SOL    HW2 8866   5.866   3.716   4.991  0.7993 -0.7601  0.3482
 2558SOL     OW 8867   0.684   2.054   4.489  0.1893  0.7367  0.3260
 2558SOL    HW1 8868   0.618   2.122   4.479  1.1894  1.6124 -0.5140
 2558SOL    HW2 8869   0.643   1.988   4.545 -0.9577  1.8052  0.7619
 2559SOL     OW 8870   7.579   5.636   2.632  0.0660  0.4203  0.0213
 2559SOL    HW1 8871   7.516   5.577   2.675 -0.4605 -0.6257 -2.0469
 2559SOL    HW2 8872   7.525   5.690   2.574  0.8473  1.1553 -0.0370
 2560SOL     OW 8873   4.400   0.330   7.879 -0.3880  0.4528  0.0947
 2560SOL    HW1 8874   4.378   0.242   7.848 -0.3692  0.4987 -0.0494
 2560SOL    HW2 8875   4.480   0.352   7.833 -0.1760  0.3882  0.4298
 2561SOL     OW 8876   3.293   7.370   0.119  0.0141 -0.1124 -0.9225
 2561SOL    HW1 8877   3.204   7.380   0.153  0.9135 -1.8919  2.3528
 2561SOL    HW2 8878   3.323   7.460   0.107 -1.1258  0.6341  1.1939
 2562SOL     OW 8879   1.724   1.834   0.884 -0.1346 -0.3030 -0.3055
 2562SOL    HW1 8880   1.757   1.920   0.911 -0.8755 -0.2599  0.5077
 2562SOL    HW2 8881   1.800   1.788   0.849  0.2526  0.7218 -0.8464
 2563SOL     OW 8882   8.444   7.680   3.494 -0.1296 -0.2735 -0.4880
 2563SOL    HW1 8883   8.459   7.679   3.589 -2.4891  2.1675  0.0401
 2563SOL    HW2 8884   8.531   7.691   3.456  0.6941  0.7820  1.5192
 2564SOL     OW 8885   3.197   0.523   8.034  0.1592 -0.0261 -0.0643
 2564SOL    HW1 8886   3.186   0.566   7.949 -0.3889  0.9094  0.4658
 2564SOL    HW2 8887   3.268   0.570   8.076  0.8924 -0.9291 -0.2616
 2565SOL     OW 8888   1.454   5.978   4.827 -0.2829 -0.6620  0.3477
 2565SOL    HW1 8889   1.525   5.934   4.781  0.4641  2.2395 -1.5167
 2565SOL    HW2 8890   1.388   5.995   4.759 -0.2099  1.6438  0.7889
 2566SOL     OW 8891   1.838   7.660   4.762 -0.0501  0.4278  0.0901
 2566SOL    HW1 8892   1.807   7.655   4.671  0.2061  1.1680 -0.0434
 2566SOL    HW2 8893   1.763   7.694   4.810  0.8221  3.2773 -0.4112
 2567SOL     OW 8894   5.623   4.785   7.386  0.4024  0.4709 -0.0519
 2567SOL    HW1 8895   5.550   4.821   7.438  0.0583 -0.6421  0.2698
 2567SOL    HW2 8896   5.637   4.849   7.317 -0.6410  0.8988  0.1075
 2568SOL     OW 8897   2.893   3.321   2.427 -0.0457  0.0615  0.2627
 2568SOL    HW1 8898   2.918   3.410   2.453 -0.4943  0.1692  0.3359
 2568SOL    HW2 8899   2.961   3.294   2.366 -0.6925  1.0296 -0.9382
 2569SOL     OW 8900   8.512   5.580   3.340  0.3555 -0.0136  0.1552
 2569SOL    HW1 8901   8.458   5.619   3.271  0.8081  2.2762  1.0114
 2569SOL    HW2 8902   8.578   5.646   3.359  3.5913 -2.6973 -0.8633
 2570SOL     OW 8903   7.256   3.715   1.336  0.5694  0.2587 -0.0748
 2570SOL    HW1 8904   7.235   3.805   1.364 -1.4256  0.3185 -1.5626
 2570SOL    HW2 8905   7.222   3.660   1.406 -0.1111  0.5906 -0.1348
 2571SOL     OW 8906   1.463   5.531   4.159  0.4738  0.3209 -0.7060
 2571SOL    HW1 8907   1.455   5.440   4.185  0.3668  0.8197  1.1285
 2571SOL    HW2 8908   1.378   5.553   4.122 -0.6365  0.4875  1.7273
 2572SOL     OW 8909   5.588   3.074   3.582 -0.0986  0.2260  0.2997
 2572SOL    HW1 8910   5.666   3.023   3.605 -0.4340 -1.1339 -1.3707
 2572SOL    HW2 8911   5.620   3.142   3.523 -0.1912 -0.4414 -0.5261
 2573SOL     OW 8912   5.993   0.603   7.411 -0.5106 -0.6599 -0.3842
 2573SOL    HW1 8913   5.918   0.643   7.456 -0.3010 -1.3280  0.5912
 2573SOL    HW2 8914   6.069   0.650   7.444 -0.5732  1.2468 -2.7140
 2574SOL     OW 8915   0.975   0.223   5.868  0.1129  0.1231  0.0487
 2574SOL    HW1 8916   0.977   0.173   5.950 -1.3186 -1.8576 -1.0725
 2574SOL    HW2 8917   1.010   0.164   5.802  3.1492  2.3483 -0.5732
 2575SOL     OW 8918   6.927   2.056   4.617  0.1998  0.1273 -0.1136
 2575SOL    HW1 8919   6.834   2.037   4.631  0.4440 -0.3574  0.9719
 2575SOL    HW2 8920   6.930   2.149   4.594 -0.6141 -0.0349 -0.9269
 2576SOL     OW 8921   8.139   7.771   8.578  0.2440  0.3672 -0.1828
 2576SOL    HW1 8922   8.111   7.684   8.608  0.1265  0.0300 -1.2470
 2576SOL    HW2 8923   8.057   7.816   8.558  0.3333  0.5316 -0.1735
 2577SOL     OW 8924   4.188   8.134   6.819 -0.2185 -0.6365 -0.7886
 2577SOL    HW1 8925   4.259   8.173   6.767 -1.1244  0.6527 -1.0952
 2577SOL    HW2 8926   4.135   8.086   6.755 -0.8490  0.2351 -0.9317
 2578SOL     OW 8927   4.892   2.023   4.860 -0.5791 -0.3832  0.4702
 2578SOL    HW1 8928   4.909   2.032   4.953 -1.3853  1.6270  0.4660
 2578SOL    HW2 8929   4.978   2.001   4.822  0.4012  1.6642  1.3552
 2579SOL     OW 8930   6.756   3.209   3.824  0.2640 -0.1771  0.5578
 2579SOL    HW1 8931   6.818   3.143   3.855 -1.7161 -2.3702  0.1231
 2579SOL    HW2 8932   6.685   3.208   3.888 -0.6697  0.1933 -0.4298
 2580SOL     OW 8933   7.716   0.585   1.449  0.6124  0.0712 -0.2976
 2580SOL    HW1 8934   7.690   0.630   1.369  0.2328 -0.4888 -0.5022
 2580SOL    HW2 8935   7.671   0.500   1.444 -0.7793  0.6628  1.3104
 2581SOL     OW 8936   1.880   1.676   7.030 -0.0393 -0.1586  0.3089
 2581SOL    HW1 8937   1.937   1.752   7.042 -2.3054  1.6625  0.2584
 2581SOL    HW2 8938   1.908   1.614   7.098  1.3174  1.0602  0.9146
 2582SOL     OW 8939   4.813   0.241   5.011  0.2228  0.0564  0.4371
 2582SOL    HW1 8940   4.858   0.171   5.058  0.0694  0.9426  1.9806
 2582SOL    HW2 8941   4.798   0.308   5.077 -1.5211  0.6640 -0.4977
 2583SOL     OW 8942   3.873   3.819   4.316 -0.2643 -0.2423 -0.0668
 2583SOL    HW1 8943   3.778   3.816   4.321 -0.4954  1.3840 -1.9692
 2583SOL    HW2 8944   3.898   3.741   4.266 -0.7849  0.1336 -0.9441
 2584SOL     OW 8945   0.003   8.470   3.556 -0.2762 -0.0690  0.0660
 2584SOL    HW1 8946  -0.035   8.500   3.638 -1.1021  0.9543 -0.6504
 2584SOL    HW2 8947  -0.054   8.508   3.489  2.2686  1.9367 -1.1142
 2585SOL     OW 8948   6.243   7.165   5.113  0.0016 -0.4048  0.1901
 2585SOL    HW1 8949   6.228   7.168   5.018  1.6332  0.1179 -0.0887
 2585SOL    HW2 8950   6.224   7.254   5.142 -2.5866 -1.0763  0.7532
 2586SOL     OW 8951   6.243   2.317   7.755  0.3840 -0.2561 -0.1088
 2586SOL    HW1 8952   6.309   2.336   7.688  1.4316  1.3062  1.2856
 2586SOL    HW2 8953   6.180   2.389   7.747  0.6432  0.0725  0.7096
 2587SOL     OW 8954   5.108   5.068   5.073 -0.4297  0.3507  0.4787
 2587SOL    HW1 8955   5.197   5.100   5.088  0.0220 -0.6715  0.0608
 2587SOL    HW2 8956   5.058   5.103   5.146  1.2269 -2.5562  3.3127
 2588SOL     OW 8957   4.649   0.820   6.736  0.1274  0.9206  0.3917
 2588SOL    HW1 8958   4.674   0.767   6.661  2.7954 -1.0866  2.5142
 2588SOL    HW2 8959   4.677   0.909   6.713  0.1403  0.5161 -1.2581
 2589SOL     OW 8960   7.613   5.646   4.108  0.2479  0.2905 -0.5380
 2589SOL    HW1 8961   7.599   5.730   4.151  0.6037  0.1209 -0.0801
 2589SOL    HW2 8962   7.526   5.607   4.102  0.0018  0.9381 -1.2840
 2590SOL     OW 8963   7.097   6.092   5.650  0.1734  0.1688 -0.3831
 2590SOL    HW1 8964   7.088   6.040   5.730  0.7813  0.6176 -0.0164
 2590SOL    HW2 8965   7.127   6.029   5.585  1.0662  0.0841  0.0981
 2591SOL     OW 8966   1.910   6.759   8.566 -0.4903  0.4007 -0.1517
 2591SOL    HW1 8967   1.896   6.689   8.630  2.4338  0.5264  0.7517
 2591SOL    HW2 8968   1.923   6.713   8.483  0.4973 -0.1014  0.2685
 2592SOL     OW 8969   4.713   3.648   7.693  0.6691  0.3807 -0.1888
 2592SOL    HW1 8970   4.801   3.617   7.669  0.2552 -0.9509 -0.0550
 2592SOL    HW2 8971   4.695   3.606   7.777  0.2463  1.3652  0.2321
 2593SOL     OW 8972   3.502   5.620   5.826 -0.3294  0.4792 -0.1670
 2593SOL    HW1 8973   3.422   5.569   5.842 -1.0397  1.4571 -0.4541
 2593SOL    HW2 8974   3.499   5.690   5.892  1.3176 -0.5731  1.1046
 2594SOL     OW 8975   6.772   5.216   5.358  0.9993 -0.2729  0.4961
 2594SOL    HW1 8976   6.757   5.161   5.435 -0.1592  1.5428  1.6192
 2594SOL    HW2 8977   6.866   5.232   5.358  0.8142  1.3194  2.7568
 2595SOL     OW 8978   2.396   7.458   8.428 -0.2179 -0.4628  0.1733
 2595SOL    HW1 8979   2.303   7.461   8.448 -0.5536 -1.4615 -1.1700
 2595SOL    HW2 8980   2.401   7.467   8.333  1.0384 -0.7477  0.1946
 2596SOL     OW 8981   6.323   4.481   1.480 -0.0582  0.2755  0.0111
 2596SOL    HW1 8982   6.275   4.554   1.519  0.6973  0.4696  0.6032
 2596SOL    HW2 8983   6.269   4.404   1.499 -0.2958  0.5327  0.4028
 2597SOL     OW 8984   8.548   6.672   0.028 -0.2376  0.4783 -0.0036
 2597SOL    HW1 8985   8.587   6.649  -0.056  0.8395 -0.6030  0.7386
 2597SOL    HW2 8986   8.623   6.678   0.088 -1.0144  0.7244  0.9706
 2598SOL     OW 8987   6.851   2.530   5.125 -0.1128  0.0069 -0.0809
 2598SOL    HW1 8988   6.818   2.450   5.084  0.4937  0.2482 -1.0503
 2598SOL    HW2 8989   6.873   2.503   5.214 -0.3517 -0.7925 -0.2555
 2599SOL     OW 8990   2.549   6.364   5.961 -0.3736  0.1246 -0.3807
 2599SOL    HW1 8991   2.459   6.379   5.989  0.2085  1.7359  0.7730
 2599SOL    HW2 8992   2.542   6.346   5.867 -1.7529  2.2581 -0.7693
 2600SOL     OW 8993   4.028   0.675   6.924 -0.1295  0.4877 -0.4422
 2600SOL    HW1 8994   3.949   0.729   6.925  1.0664  2.3148  0.0305
 2600SOL    HW2 8995   4.064   0.686   6.836 -0.9184 -1.2346 -1.0389
 2601SOL     OW 8996   8.107   8.401   2.779 -0.0073  0.0883 -0.9213
 2601SOL    HW1 8997   8.115   8.305   2.776 -0.7777 -0.1416  1.7374
 2601SOL    HW2 8998   8.156   8.426   2.857 -3.2303  1.3376  0.8686
 2602SOL     OW 8999   3.665   4.226   8.468  0.1104 -0.3423  0.5064
 2602SOL    HW1 9000   3.640   4.201   8.557 -0.3713 -1.3205  0.1047
 2602SOL    HW2 9001   3.689   4.144   8.425 -0.2905  0.0230 -0.4597
 2603SOL     OW 9002   1.647   6.761   2.497 -0.3922 -0.1058  0.7803
 2603SOL    HW1 9003   1.606   6.746   2.583  1.0127 -0.5145  1.4170
 2603SOL    HW2 9004   1.659   6.673   2.462 -1.2080  0.0729  0.0188
 2604SOL     OW 9005   0.821   2.864   2.313  0.6128  0.7373  0.1083
 2604SOL    HW1 9006   0.750   2.831   2.257 -0.2531  2.3525  0.1871
 2604SOL    HW2 9007   0.779   2.881   2.397  1.2845  0.9759  0.3997
 2605SOL     OW 9008   4.742   3.115   2.892  0.2993 -0.7309  0.4854
 2605SOL    HW1 9009   4.802   3.045   2.867  1.5503  0.4404  0.0804
 2605SOL    HW2 9010   4.666   3.103   2.834  2.1061  0.4853 -2.3700
 2606SOL     OW 9011   1.321   2.186   6.740  0.2065  0.1611 -0.0820
 2606SOL    HW1 9012   1.245   2.242   6.754  1.6992  2.6171 -1.1952
 2606SOL    HW2 9013   1.316   2.162   6.647 -0.6558 -2.0752  0.4651
 2607SOL     OW 9014   5.222   2.598   5.166  0.1303  0.0768 -0.2072
 2607SOL    HW1 9015   5.186   2.606   5.255 -0.5146  0.7626 -0.5265
 2607SOL    HW2 9016   5.221   2.504   5.149  0.5873 -0.0997  0.6423
 2608SOL     OW 9017   4.535   0.421   3.004  0.3475  0.4799 -0.0009
 2608SOL    HW1 9018   4.569   0.332   3.006 -1.2625 -0.1938 -0.5242
 2608SOL    HW2 9019   4.543   0.448   2.912  4.1540  2.3269  0.6831
 2609SOL     OW 9020   1.091   5.505   7.784  0.6126  0.4872 -0.0129
 2609SOL    HW1 9021   1.075   5.445   7.857  2.3340 -1.0828 -0.8233
 2609SOL    HW2 9022   1.183   5.530   7.794  0.2134  2.2290 -0.3008
 2610SOL     OW 9023   0.405   4.815   7.991  0.3197 -0.0991 -0.5554
 2610SOL    HW1 9024   0.398   4.873   8.067  0.7823 -1.5209  0.6238
 2610SOL    HW2 9025   0.335   4.844   7.932 -1.3518 -0.1960  1.2765
 2611SOL     OW 9026   3.637   1.392   2.025  0.2397 -0.1069  0.1625
 2611SOL    HW1 9027   3.688   1.466   2.060 -0.1341 -0.6142  1.8891
 2611SOL    HW2 9028   3.549   1.406   2.060  0.1765 -1.3809  0.5485
 2612SOL     OW 9029   5.869   5.878   2.146  0.7778 -0.5053  0.3771
 2612SOL    HW1 9030   5.847   5.887   2.053  2.2508 -1.4005 -0.0917
 2612SOL    HW2 9031   5.791   5.911   2.192  1.0649  2.6750 -1.1239
 2613SOL     OW 9032   1.872   7.601   3.552 -0.3742 -0.4799  0.3477
 2613SOL    HW1 9033   1.871   7.510   3.523 -0.9826 -0.6741  0.9546
 2613SOL    HW2 9034   1.911   7.598   3.639 -1.3033 -0.2972  0.7794
 2614SOL     OW 9035   0.703   0.372   0.268 -0.1300 -0.2510  0.1977
 2614SOL    HW1 9036   0.791   0.341   0.245 -0.3093  0.1628 -1.1600
 2614SOL    HW2 9037   0.653   0.292   0.284  0.5374 -0.4842  1.2451
 2615SOL     OW 9038   0.503   4.370   1.290  0.0701  0.2568  0.2126
 2615SOL    HW1 9039   0.586   4.330   1.317 -0.5010 -0.4503  0.9586
 2615SOL    HW2 9040   0.529   4.451   1.245  1.2191 -0.6464 -0.8123
 2616SOL     OW 9041   6.942   2.453   2.606  0.0696  0.4842  0.1573
 2616SOL    HW1 9042   6.930   2.532   2.658 -2.7427 -0.7600  1.6092
 2616SOL    HW2 9043   6.969   2.386   2.668  0.1198 -0.2441 -0.6240
 2617SOL     OW 9044   1.441   1.620   1.285  0.1815  0.3232  0.0479
 2617SOL    HW1 9045   1.372   1.633   1.219  0.2244 -0.0328 -0.0736
 2617SOL    HW2 9046   1.433   1.695   1.343 -1.4399 -0.5437  1.0359
 2618SOL     OW 9047   0.032   0.037   2.044  0.3360 -0.7123  0.0240
 2618SOL    HW1 9048   0.037   0.099   1.972 -0.6237 -0.5337  0.0873
 2618SOL    HW2 9049  -0.035  -0.026   2.017  0.7456 -1.2732  0.2956
 2619SOL     OW 9050   2.548   0.653   0.483  0.2488 -0.6842 -0.3368
 2619SOL    HW1 9051   2.618   0.616   0.429 -0.4455  0.2723 -1.9884
 2619SOL    HW2 9052   2.477   0.589   0.478  0.1180 -0.5135 -0.7478
 2620SOL     OW 9053   1.446   5.142   0.128 -0.0198  0.0982  0.8576
 2620SOL    HW1 9054   1.525   5.178   0.090  0.0284  0.4770  1.3081
 2620SOL    HW2 9055   1.379   5.154   0.061 -0.1995  1.7780  1.2944
 2621SOL     OW 9056   3.320   2.370   1.342 -0.0897 -0.2130 -0.5176
 2621SOL    HW1 9057   3.302   2.289   1.389 -0.0794 -0.0783 -0.2774
 2621SOL    HW2 9058   3.235   2.411   1.331  0.0383  0.3839  0.5455
 2622SOL     OW 9059   6.132   6.082   0.666 -0.3747 -0.5474 -0.6695
 2622SOL    HW1 9060   6.171   6.001   0.699 -0.8380 -0.4981  0.0023
 2622SOL    HW2 9061   6.131   6.070   0.571 -0.2398 -1.2406 -0.5905
 2623SOL     OW 9062   2.508   0.337   6.124 -0.0782 -0.1313 -0.2821
 2623SOL    HW1 9063   2.471   0.424   6.109 -0.3929 -0.2725 -0.3525
 2623SOL    HW2 9064   2.594   0.339   6.082  0.2953  0.4302  0.4905
 2624SOL     OW 9065   4.157   7.579   7.871 -0.4932 -0.1477  0.2225
 2624SOL    HW1 9066   4.185   7.487   7.868 -0.3780 -0.2067  2.0034
 2624SOL    HW2 9067   4.234   7.626   7.904 -0.6913  0.5236 -0.2722
 2625SOL     OW 9068   7.360   3.465   6.903 -0.1870 -0.4952  0.1631
 2625SOL    HW1 9069   7.395   3.471   6.992  0.1793  0.1914 -0.0185
 2625SOL    HW2 9070   7.437   3.468   6.846 -0.3697 -1.6164 -0.1690
 2626SOL     OW 9071   7.493   1.950   5.727 -0.1027  0.4375 -0.1816
 2626SOL    HW1 9072   7.572   1.969   5.676  0.2873 -1.0040 -0.1641
 2626SOL    HW2 9073   7.487   1.855   5.727 -2.8177  0.5107 -1.6439
 2627SOL     OW 9074   7.192   0.980   7.584 -0.1380 -0.0338  0.3889
 2627SOL    HW1 9075   7.124   0.928   7.627 -0.7071  1.1448  0.9531
 2627SOL    HW2 9076   7.266   0.920   7.574 -0.4759 -0.7118  1.7864
 2628SOL     OW 9077   6.245   2.672   1.962 -0.3494 -0.4347 -0.2365
 2628SOL    HW1 9078   6.330   2.655   1.921  0.3421  0.5097  0.7589
 2628SOL    HW2 9079   6.224   2.762   1.935 -1.4493 -0.9409 -1.1579
 2629SOL     OW 9080   0.537   8.053   4.241  0.0086 -0.2178  0.1362
 2629SOL    HW1 9081   0.567   8.129   4.192 -0.0729 -0.5547 -0.4455
 2629SOL    HW2 9082   0.510   8.088   4.326  0.2853  0.3484 -0.0048
 2630SOL     OW 9083   4.484   7.437   3.246 -0.4068  0.7905  0.4126
 2630SOL    HW1 9084   4.423   7.378   3.201  1.8561 -2.0304  0.7229
 2630SOL    HW2 9085   4.553   7.454   3.182  0.3799  0.7579  1.2218
 2631SOL     OW 9086   5.507   0.860   1.007 -0.4012 -0.2689  0.4432
 2631SOL    HW1 9087   5.461   0.843   1.089  0.4522 -0.6280  0.8607
 2631SOL    HW2 9088   5.529   0.953   1.011 -0.9064 -0.1461  0.3397
 2632SOL     OW 9089   4.986   8.122   2.046 -0.4925 -0.7719 -0.0542
 2632SOL    HW1 9090   5.056   8.090   1.990  0.6430  0.0399  0.8762
 2632SOL    HW2 9091   4.976   8.054   2.113  0.5898 -0.1107  0.7975
 2633SOL     OW 9092   2.799   1.979   6.641 -0.2122  0.1197 -0.2280
 2633SOL    HW1 9093   2.808   2.069   6.609 -3.0136  0.9359  0.9918
 2633SOL    HW2 9094   2.801   1.925   6.562 -0.1518  1.4117 -1.1393
 2634SOL     OW 9095   1.154   0.345   7.072 -0.0444 -0.2799 -0.2883
 2634SOL    HW1 9096   1.153   0.435   7.041 -1.2821  0.5727  2.0150
 2634SOL    HW2 9097   1.150   0.352   7.168  0.5872 -2.7817 -0.0028
 2635SOL     OW 9098   0.775   5.589   1.848 -0.2324  0.0750  0.1933
 2635SOL    HW1 9099   0.867   5.584   1.824 -0.6285 -0.5349 -1.2671
 2635SOL    HW2 9100   0.728   5.592   1.765 -1.4539  2.6316  0.8623
 2636SOL     OW 9101   2.050   7.664   2.169 -0.0239 -0.8663  0.2742
 2636SOL    HW1 9102   2.126   7.685   2.223  0.0802 -0.1033 -0.1562
 2636SOL    HW2 9103   2.087   7.635   2.085 -0.1963 -0.8864  0.2042
 2637SOL     OW 9104   3.409   3.387   4.851 -0.1060 -0.2090 -0.1159
 2637SOL    HW1 9105   3.407   3.295   4.824  0.2096 -0.2965  0.1531
 2637SOL    HW2 9106   3.327   3.423   4.817 -0.7430 -0.8517  0.6824
 2638SOL     OW 9107   0.084   3.940   6.405  0.3790 -0.2359 -0.3589
 2638SOL    HW1 9108   0.098   4.033   6.388  0.9570 -0.3359 -0.4355
 2638SOL    HW2 9109   0.078   3.933   6.500 -2.4237  0.2628 -0.4294
 2639SOL     OW 9110   1.492   3.889   7.469  0.4580 -0.2011 -0.4374
 2639SOL    HW1 9111   1.516   3.943   7.544 -3.5063 -0.0982  1.0224
 2639SOL    HW2 9112   1.416   3.932   7.431  0.2290 -2.1223 -2.3919
 2640SOL     OW 9113   5.597   4.476   2.849 -0.2553  0.9567  0.1104
 2640SOL    HW1 9114   5.576   4.561   2.886 -1.0165  1.7878 -2.0517
 2640SOL    HW2 9115   5.684   4.454   2.885 -1.1738  1.3428  2.7577
 2641SOL     OW 9116   2.304   5.590   5.228  0.0521 -0.0229  0.3397
 2641SOL    HW1 9117   2.273   5.628   5.310  2.1177  2.4730  0.0988
 2641SOL    HW2 9118   2.285   5.657   5.162  0.1473 -1.1711 -0.8824
 2642SOL     OW 9119   2.969   1.260   8.211 -0.0593  0.3354 -0.1487
 2642SOL    HW1 9120   2.939   1.331   8.269  0.0451  2.2018 -2.2438
 2642SOL    HW2 9121   3.010   1.305   8.137  1.4928 -1.9845 -0.8228
 2643SOL     OW 9122   1.081   1.345   6.526 -0.1796  0.6934  0.5447
 2643SOL    HW1 9123   1.176   1.333   6.527 -0.1779  0.7448  1.0284
 2643SOL    HW2 9124   1.068   1.428   6.480 -0.1655 -0.8069 -2.4494
 2644SOL     OW 9125   4.544   1.020   0.829  0.8114 -0.2858  0.0062
 2644SOL    HW1 9126   4.552   1.060   0.743 -2.2885 -1.0412 -0.7708
 2644SOL    HW2 9127   4.521   1.093   0.887  1.5229  0.0063 -0.0691
 2645SOL     OW 9128   0.517   3.255   1.991 -1.0057  0.1210  0.4104
 2645SOL    HW1 9129   0.458   3.247   1.916  1.2123 -1.2794 -1.3443
 2645SOL    HW2 9130   0.551   3.344   1.985 -1.5110  0.3103  0.2963
 2646SOL     OW 9131   4.565   3.456   4.930  0.7143  0.1304  0.1286
 2646SOL    HW1 9132   4.576   3.550   4.941 -1.2354  0.2658  1.4174
 2646SOL    HW2 9133   4.471   3.441   4.941  0.5660 -1.6977 -2.5104
 2647SOL     OW 9134   7.859   3.692   3.523 -0.0843  0.4772  0.6904
 2647SOL    HW1 9135   7.770   3.670   3.550 -0.2760  0.7844  0.3220
 2647SOL    HW2 9136   7.889   3.754   3.590 -1.0212  2.2334 -0.4369
 2648SOL     OW 9137   1.022   7.718   3.208 -0.3288  0.3228  0.4229
 2648SOL    HW1 9138   1.071   7.774   3.147 -0.2338  0.1506  0.3405
 2648SOL    HW2 9139   1.078   7.642   3.221  0.1291  0.8421  1.5711
 2649SOL     OW 9140   0.908   7.846   7.503  0.6985  0.5260 -0.1833
 2649SOL    HW1 9141   0.896   7.938   7.480  2.7451  1.0622  0.7125
 2649SOL    HW2 9142   0.819   7.812   7.512 -0.1094  2.6892  0.5910
 2650SOL     OW 9143   3.186   2.616   0.967  0.3391 -0.1172  0.1833
 2650SOL    HW1 9144   3.124   2.598   1.038  2.1577  1.0557  2.2171
 2650SOL    HW2 9145   3.163   2.704   0.937  0.7441  0.1704  0.6885
 2651SOL     OW 9146   6.979   5.568   5.140  0.5083 -0.3380  0.0724
 2651SOL    HW1 9147   6.928   5.495   5.107 -0.4736  0.8007 -1.0476
 2651SOL    HW2 9148   7.012   5.612   5.061  1.1269  0.3835  0.7130
 2652SOL     OW 9149   6.250   1.984   7.594  0.2358  0.2421 -0.2734
 2652SOL    HW1 9150   6.179   1.950   7.650 -0.0286 -1.8210 -1.7794
 2652SOL    HW2 9151   6.328   1.977   7.648  0.0239 -1.9490 -0.1625
 2653SOL     OW 9152   8.072   2.450   5.461 -0.4534  0.2987  0.1650
 2653SOL    HW1 9153   8.168   2.448   5.471 -0.2278  0.7645 -1.6305
 2653SOL    HW2 9154   8.056   2.515   5.394 -1.7928 -2.0570 -1.9745
 2654SOL     OW 9155   6.739   6.181   6.845  0.2278 -0.1120  0.1443
 2654SOL    HW1 9156   6.781   6.191   6.930  0.8557 -0.2544 -0.1426
 2654SOL    HW2 9157   6.695   6.096   6.850 -1.0558  0.5498  0.8641
 2655SOL     OW 9158   7.613   2.257   2.564 -0.0487  0.4682  0.6464
 2655SOL    HW1 9159   7.672   2.206   2.618  0.3029  0.5718  0.3629
 2655SOL    HW2 9160   7.668   2.290   2.492 -1.0626 -2.0747 -1.4738
 2656SOL     OW 9161   3.377   4.726   2.676 -0.6765  0.2109  0.0493
 2656SOL    HW1 9162   3.404   4.803   2.725  0.1283  0.6540 -1.0365
 2656SOL    HW2 9163   3.313   4.759   2.612 -1.6128 -0.3291  0.6870
 2657SOL     OW 9164   6.558   7.048   2.836 -0.1330  0.3796  0.1253
 2657SOL    HW1 9165   6.604   7.042   2.752 -0.9127  1.4740 -0.4023
 2657SOL    HW2 9166   6.618   7.008   2.899  1.6630  1.9378 -0.4950
 2658SOL     OW 9167   0.061   7.493   2.695 -0.3751 -0.2142  0.2374
 2658SOL    HW1 9168   0.034   7.584   2.710 -3.4552 -0.9333 -0.3929
 2658SOL    HW2 9169   0.020   7.444   2.767  1.0236 -1.1856  0.4137
 2659SOL     OW 9170   1.911   3.320   0.022 -0.4053 -0.0843  0.3375
 2659SOL    HW1 9171   1.865   3.404   0.026 -3.2432 -1.5538  1.6595
 2659SOL    HW2 9172   1.845   3.258  -0.009  1.4438 -1.9538 -0.0884
 2660SOL     OW 9173   2.331   4.779   5.871 -0.1529 -0.3277  0.1132
 2660SOL    HW1 9174   2.337   4.869   5.904 -1.5602  1.1149 -3.1690
 2660SOL    HW2 9175   2.272   4.735   5.933 -1.1951  1.6575  0.6175
 2661SOL     OW 9176   1.249   4.007   7.328  0.1485 -0.0652  0.1227
 2661SOL    HW1 9177   1.153   4.011   7.334  0.1828 -0.2357  0.8075
 2661SOL    HW2 9178   1.271   4.075   7.264 -0.3874  0.4722  0.4889
 2662SOL     OW 9179   1.536   5.997   2.412 -0.3912  0.5486 -0.3677
 2662SOL    HW1 9180   1.471   5.950   2.360  0.9060  0.8719 -2.4204
 2662SOL    HW2 9181   1.561   5.935   2.481 -1.9933 -0.0115 -0.2609
 2663SOL     OW 9182   6.572   4.898   0.833 -0.2295  0.0100  0.2603
 2663SOL    HW1 9183   6.593   4.987   0.862  0.9176  0.2148 -1.1010
 2663SOL    HW2 9184   6.565   4.847   0.914  1.3733  0.8615  0.9771
 2664SOL     OW 9185   6.999   2.394   1.542 -0.0783 -0.1023  0.5256
 2664SOL    HW1 9186   7.012   2.471   1.486  0.7556  0.2860  1.2357
 2664SOL    HW2 9187   7.059   2.407   1.615 -0.1530 -1.2921  0.8112
 2665SOL     OW 9188   0.831   2.942   8.108  0.4505 -0.0118 -0.6627
 2665SOL    HW1 9189   0.901   2.877   8.102 -1.2161 -1.8253 -1.6942
 2665SOL    HW2 9190   0.799   2.951   8.019 -2.1083 -1.0124  0.0678
 2666SOL     OW 9191   4.824   5.088   8.106  0.1337 -0.3463 -1.1547
 2666SOL    HW1 9192   4.871   5.147   8.166  2.8279 -2.8176 -0.6308
 2666SOL    HW2 9193   4.862   5.106   8.020 -2.2359  1.7008 -1.8776
 2667SOL     OW 9194   7.831   4.290   7.106  0.2871  0.0573 -0.2611
 2667SOL    HW1 9195   7.807   4.255   7.192  0.0628  1.1521  0.1285
 2667SOL    HW2 9196   7.749   4.324   7.070 -0.0261 -2.0190 -1.7256
 2668SOL     OW 9197   2.474   8.363   8.438 -0.1570  0.4824  0.6294
 2668SOL    HW1 9198   2.551   8.323   8.397 -0.3530 -1.4199  1.9912
 2668SOL    HW2 9199   2.400   8.325   8.390 -0.3070  0.3596  0.9572
 2669SOL     OW 9200   2.859   4.399   5.885  0.1696  0.0354 -0.5041
 2669SOL    HW1 9201   2.944   4.378   5.922 -0.0909 -2.1532 -0.9603
 2669SOL    HW2 9202   2.797   4.382   5.956 -0.1239 -1.8771 -1.1363
 2670SOL     OW 9203   2.883   4.452   2.186 -0.7071 -0.1707  0.4480
 2670SOL    HW1 9204   2.842   4.415   2.108 -0.4004 -0.7458  0.5575
 2670SOL    HW2 9205   2.828   4.527   2.208 -0.5283  0.2949 -0.5976
 2671SOL     OW 9206   3.712   1.965   5.456  0.2188  0.3495 -0.1860
 2671SOL    HW1 9207   3.752   1.995   5.538  2.5334  0.0084 -1.1319
 2671SOL    HW2 9208   3.707   2.043   5.401 -0.3201  0.3637 -0.1212
 2672SOL     OW 9209   1.010   4.433   0.372  0.1303  0.1796  0.5006
 2672SOL    HW1 9210   0.937   4.486   0.405  0.3940 -0.3061  1.9619
 2672SOL    HW2 9211   1.082   4.495   0.362  0.1646  0.2882  1.2998
 2673SOL     OW 9212   3.090   3.594   5.180 -0.4517  0.5306  0.1179
 2673SOL    HW1 9213   3.171   3.544   5.179 -0.4947  0.4572  0.2963
 2673SOL    HW2 9214   3.020   3.529   5.171 -0.5283  0.5081  0.8296
 2674SOL     OW 9215   0.107   1.938   2.011  0.1860 -0.2697 -0.3160
 2674SOL    HW1 9216   0.087   1.866   1.953  1.8865 -0.9826 -0.0892
 2674SOL    HW2 9217   0.060   1.919   2.092  1.4855 -1.7672  0.1409
 2675SOL     OW 9218   2.167   4.622   4.866  0.0355  0.0241  0.2662
 2675SOL    HW1 9219   2.111   4.624   4.944  0.2564  1.4488  0.4183
 2675SOL    HW2 9220   2.256   4.626   4.901  0.1200  1.7183 -0.0394
 2676SOL     OW 9221   1.134   6.415   1.952 -0.0974  0.0635  0.2077
 2676SOL    HW1 9222   1.178   6.464   1.883  1.7198 -3.1394 -1.1471
 2676SOL    HW2 9223   1.202   6.397   2.017 -0.0509 -2.2803 -0.3751
 2677SOL     OW 9224   8.270   4.792   8.451 -0.1232 -0.0289  0.3190
 2677SOL    HW1 9225   8.306   4.868   8.406  0.4663  0.8810  2.2263
 2677SOL    HW2 9226   8.179   4.815   8.469  0.6782  1.4280  3.1382
 2678SOL     OW 9227   1.841   4.146   8.430  0.2719  0.1986  0.3254
 2678SOL    HW1 9228   1.901   4.218   8.410  0.8102 -0.5701 -0.9315
 2678SOL    HW2 9229   1.890   4.067   8.407 -1.1550 -0.4530 -0.5894
 2679SOL     OW 9230   8.518   3.824   1.175 -0.7780 -0.3031  0.0404
 2679SOL    HW1 9231   8.583   3.780   1.120  0.6661  1.1614  0.4905
 2679SOL    HW2 9232   8.486   3.896   1.121  0.1447  0.7283  0.8183
 2680SOL     OW 9233   3.128   8.173   2.444  0.5396  0.0473  0.0592
 2680SOL    HW1 9234   3.207   8.200   2.398 -0.1302 -0.7770 -1.6645
 2680SOL    HW2 9235   3.158   8.147   2.531  1.9518  0.9967 -0.1165
 2681SOL     OW 9236   3.295   3.140   1.355  0.6864 -0.3981 -0.3014
 2681SOL    HW1 9237   3.313   3.047   1.345  0.8911 -0.3831 -0.0751
 2681SOL    HW2 9238   3.344   3.182   1.284  0.0358 -0.5186 -0.8400
 2682SOL     OW 9239   6.196   7.224   1.151 -0.2364 -0.3457 -0.4382
 2682SOL    HW1 9240   6.193   7.316   1.124 -1.2176  0.4745  2.1705
 2682SOL    HW2 9241   6.109   7.190   1.132 -0.6844  0.0164  0.8938
 2683SOL     OW 9242   4.055   3.080   3.756  0.2382 -0.1787 -0.1518
 2683SOL    HW1 9243   3.963   3.052   3.755 -0.1250  0.9579 -1.3576
 2683SOL    HW2 9244   4.075   3.100   3.665  1.7153 -0.4413  0.0822
 2684SOL     OW 9245   4.429   3.076   4.235 -0.5111 -0.1531  0.3107
 2684SOL    HW1 9246   4.404   2.994   4.194 -2.5390  1.1941 -1.3867
 2684SOL    HW2 9247   4.378   3.078   4.316  0.3065 -0.9908  0.8530
 2685SOL     OW 9248   5.176   3.575   2.721 -0.5492  0.0610  0.0800
 2685SOL    HW1 9249   5.099   3.571   2.778 -0.3153  0.2968  0.4235
 2685SOL    HW2 9250   5.142   3.566   2.633 -1.0541  0.9070  0.1754
 2686SOL     OW 9251   2.035   3.211   2.831 -0.1566  0.3183  0.1097
 2686SOL    HW1 9252   2.001   3.244   2.914  1.0412  0.7697  0.4505
 2686SOL    HW2 9253   2.121   3.252   2.822  0.5266 -1.1454 -0.4487
 2687SOL     OW 9254   4.594   8.187   7.886  0.1319 -0.6795 -0.4090
 2687SOL    HW1 9255   4.626   8.150   7.969  0.7756  0.8210  0.0354
 2687SOL    HW2 9256   4.551   8.113   7.843 -1.2387 -1.2459  1.7731
 2688SOL     OW 9257   4.531   0.613   4.529 -0.3071 -0.3548 -0.3048
 2688SOL    HW1 9258   4.545   0.616   4.434  1.3061  0.1132 -0.0780
 2688SOL    HW2 9259   4.494   0.698   4.551  1.8296  0.5991 -0.1873
 2689SOL     OW 9260   8.276   1.738   1.560  0.3211 -0.4512  0.1510
 2689SOL    HW1 9261   8.344   1.749   1.627  1.0362 -1.7923 -0.3174
 2689SOL    HW2 9262   8.204   1.695   1.606 -0.9878  2.4746  1.0724
 2690SOL     OW 9263   2.861   4.465   6.197 -0.2848  0.1078 -0.2313
 2690SOL    HW1 9264   2.854   4.400   6.266 -0.0929  1.8931  1.5517
 2690SOL    HW2 9265   2.931   4.433   6.141  0.5043 -0.7105  1.1733
 2691SOL     OW 9266   1.926   0.678   2.384  0.2085 -0.1277  0.2460
 2691SOL    HW1 9267   2.011   0.644   2.356 -0.1885 -1.7288  0.8474
 2691SOL    HW2 9268   1.936   0.692   2.478 -1.0470 -3.4216  1.0104
 2692SOL     OW 9269   6.473   3.408   0.468 -0.3817 -0.3955  0.1251
 2692SOL    HW1 9270   6.482   3.441   0.558 -0.1428  0.0112 -0.0423
 2692SOL    HW2 9271   6.534   3.462   0.417 -2.0154  0.7897 -0.6464
 2693SOL     OW 9272   4.346   3.645   6.650  0.0817  0.3571  0.2535
 2693SOL    HW1 9273   4.304   3.636   6.736 -1.5771 -2.0545 -0.6871
 2693SOL    HW2 9274   4.281   3.690   6.596  0.7993  1.1711  0.0597
 2694SOL     OW 9275   1.002   2.161   2.200  0.5376 -0.5784  0.0980
 2694SOL    HW1 9276   0.912   2.193   2.193 -0.3260 -2.9543 -0.8016
 2694SOL    HW2 9277   0.995   2.080   2.252  2.1150 -0.9581 -0.2181
 2695SOL     OW 9278   6.985   3.933   4.271  0.3927 -0.6360  0.0409
 2695SOL    HW1 9279   6.899   3.916   4.232  0.4207  0.0138 -0.3201
 2695SOL    HW2 9280   7.044   3.870   4.229  0.5023  0.3246 -1.2836
 2696SOL     OW 9281   8.216   6.460   1.897 -0.0153 -0.5857 -0.3029
 2696SOL    HW1 9282   8.236   6.550   1.871  1.4833 -0.6937  0.3887
 2696SOL    HW2 9283   8.225   6.460   1.993 -0.7094 -1.3167 -0.2244
 2697SOL     OW 9284   5.067   2.122   4.381 -0.1476 -0.2130  0.3093
 2697SOL    HW1 9285   5.131   2.088   4.318 -0.1893 -1.7301  1.0481
 2697SOL    HW2 9286   5.032   2.044   4.424 -1.6725  0.6685  0.7221
 2698SOL     OW 9287   0.583   8.029   2.078 -0.0591  0.5756  0.1005
 2698SOL    HW1 9288   0.498   7.996   2.107 -0.2473  1.5542  0.7000
 2698SOL    HW2 9289   0.638   7.951   2.071 -0.6398  0.0722  0.9675
 2699SOL     OW 9290   5.826   1.859   8.593 -0.1753  0.0369 -0.5040
 2699SOL    HW1 9291   5.873   1.858   8.509  0.4134 -1.0484 -0.1724
 2699SOL    HW2 9292   5.894   1.849   8.659 -0.8408 -1.4060 -0.0054
 2700SOL     OW 9293   4.721   6.820   4.798  0.8174  0.2987  0.1214
 2700SOL    HW1 9294   4.811   6.822   4.832  0.6631 -0.1519  0.5687
 2700SOL    HW2 9295   4.666   6.824   4.876  0.4314  1.5582 -0.2007
 2701SOL     OW 9296   4.665   4.841   1.323  0.1312 -0.4146  0.7252
 2701SOL    HW1 9297   4.678   4.805   1.235  0.6685  0.8324  0.2609
 2701SOL    HW2 9298   4.708   4.926   1.320  0.6249 -0.5700  2.3721
 2702SOL     OW 9299   3.437   3.523   2.044 -0.3849 -0.2195  0.4166
 2702SOL    HW1 9300   3.456   3.506   2.137 -0.4679  0.5341  0.5714
 2702SOL    HW2 9301   3.523   3.533   2.004 -0.3291 -0.9834  0.3157
 2703SOL     OW 9302   5.320   3.246   7.200 -0.3442 -0.3566 -0.7944
 2703SOL    HW1 9303   5.311   3.271   7.292 -0.9538 -2.5815 -0.1774
 2703SOL    HW2 9304   5.244   3.284   7.157 -0.1927  0.4856 -0.3499
 2704SOL     OW 9305   7.758   0.957   2.799  0.2088 -0.4259  0.2349
 2704SOL    HW1 9306   7.713   1.020   2.742  1.4305 -0.6526 -1.0540
 2704SOL    HW2 9307   7.695   0.886   2.810 -0.4368  0.1063  0.0261
 2705SOL     OW 9308   4.394   4.745   4.142  0.3882 -0.3521 -0.3465
 2705SOL    HW1 9309   4.420   4.690   4.215  0.9385  1.5503  0.9536
 2705SOL    HW2 9310   4.298   4.742   4.142  0.4079 -1.0755 -0.1427
 2706SOL     OW 9311   4.503   6.322   4.234 -0.1626  0.3532 -0.0536
 2706SOL    HW1 9312   4.437   6.254   4.218 -0.0259 -0.2593  1.7295
 2706SOL    HW2 9313   4.587   6.277   4.228 -0.0828  0.2272  1.5138
 2707SOL     OW 9314   2.915   4.140   7.913  0.0089  0.0228 -0.1128
 2707SOL    HW1 9315   2.973   4.176   7.980 -1.3623  2.1428 -0.0005
 2707SOL    HW2 9316   2.835   4.190   7.921 -0.2905  0.1802 -3.1948
 2708SOL     OW 9317   8.055   6.119   5.734 -0.2086  0.6036 -0.0709
 2708SOL    HW1 9318   8.066   6.215   5.731 -0.7850  0.6538 -1.3953
 2708SOL    HW2 9319   7.962   6.107   5.751  0.2274  0.2216  2.5407
 2709SOL     OW 9320   7.079   3.566   0.071 -0.3036 -0.2882  0.2960
 2709SOL    HW1 9321   7.131   3.644   0.055 -2.8356  1.6782  0.9904
 2709SOL    HW2 9322   7.139   3.505   0.113  1.4828  1.7000  0.7850
 2710SOL     OW 9323   2.359   3.282   0.547  0.1533  0.2722 -0.3470
 2710SOL    HW1 9324   2.395   3.352   0.600  0.7708 -0.5504  0.3559
 2710SOL    HW2 9325   2.264   3.289   0.559  0.2811  0.0692  0.9412
 2711SOL     OW 9326   2.508   3.412   6.254 -0.2601 -0.5783 -0.5394
 2711SOL    HW1 9327   2.520   3.339   6.193 -0.1391 -0.7727 -0.2859
 2711SOL    HW2 9328   2.568   3.392   6.326  0.9046  0.5425 -1.1581
 2712SOL     OW 9329   3.212   8.217   7.477  0.0721 -0.5263 -0.2452
 2712SOL    HW1 9330   3.144   8.159   7.442 -1.8636  1.3198  0.2749
 2712SOL    HW2 9331   3.255   8.165   7.545 -1.2295 -1.5390 -0.1555
 2713SOL     OW 9332   4.296   5.043   4.978  0.1372  0.0263  0.3750
 2713SOL    HW1 9333   4.309   5.123   5.030 -0.1855  0.6712 -0.4968
 2713SOL    HW2 9334   4.360   4.981   5.012  0.9812  0.9454  0.5179
 2714SOL     OW 9335   4.530   0.117   5.761 -0.1879  0.1944 -0.2284
 2714SOL    HW1 9336   4.534   0.211   5.740  1.7675 -0.2294 -2.0255
 2714SOL    HW2 9337   4.487   0.078   5.685 -0.7657 -0.4303  0.4074
 2715SOL     OW 9338   5.169   4.487   3.596 -0.0503  0.0938 -0.5309
 2715SOL    HW1 9339   5.087   4.497   3.644  1.1500 -0.0114  1.6904
 2715SOL    HW2 9340   5.143   4.485   3.504 -2.4822  0.4079  0.0761
 2716SOL     OW 9341   8.492   0.481   4.475 -0.2631  0.2263  0.6282
 2716SOL    HW1 9342   8.431   0.554   4.483  0.3867  0.6975  1.5390
 2716SOL    HW2 9343   8.481   0.450   4.385 -0.8488  1.1900  0.3501
 2717SOL     OW 9344   5.805   7.329   7.389  0.2034 -0.1003  0.4283
 2717SOL    HW1 9345   5.717   7.366   7.393  0.1255  0.0512 -1.4910
 2717SOL    HW2 9346   5.861   7.403   7.365  0.6499 -0.4544  0.3612
 2718SOL     OW 9347   5.438   6.313   5.642  0.1578 -0.2141 -0.5264
 2718SOL    HW1 9348   5.498   6.284   5.710 -0.0009 -2.0371 -1.1196
 2718SOL    HW2 9349   5.359   6.259   5.654 -0.5796  0.7189 -1.0254
 2719SOL     OW 9350   7.017   1.087   3.232  0.3097 -0.0733  0.1058
 2719SOL    HW1 9351   6.985   1.176   3.245 -0.8086 -0.2865 -0.9756
 2719SOL    HW2 9352   7.086   1.076   3.297  0.0625  1.3771  0.6409
 2720SOL     OW 9353   3.747   1.257   0.996 -0.3570  0.4799  0.4477
 2720SOL    HW1 9354   3.659   1.226   1.019  0.2625 -1.2422  0.6357
 2720SOL    HW2 9355   3.790   1.273   1.080 -0.6986  2.0490  0.3552
 2721SOL     OW 9356   2.996   8.476   7.481 -0.2142 -0.4640 -0.0018
 2721SOL    HW1 9357   3.090   8.459   7.485  0.0353 -0.2937 -2.9094
 2721SOL    HW2 9358   2.986   8.567   7.509  0.5239 -0.3939  0.0303
 2722SOL     OW 9359   2.136   7.519   8.444  0.1142  0.1388 -0.0002
 2722SOL    HW1 9360   2.136   7.612   8.464  0.8738 -0.1086  1.2974
 2722SOL    HW2 9361   2.056   7.505   8.394  0.7504  1.7375 -1.5876
 2723SOL     OW 9362   1.679   0.252   3.665  0.2183 -0.2254  0.0772
 2723SOL    HW1 9363   1.658   0.303   3.587 -0.8993  0.0150  0.5014
 2723SOL    HW2 9364   1.630   0.170   3.654  0.1787 -0.2531  0.4526
 2724SOL     OW 9365   1.546   1.144   3.677  0.2624  0.6419 -0.1278
 2724SOL    HW1 9366   1.547   1.225   3.728  0.0464 -0.1721  1.2203
 2724SOL    HW2 9367   1.472   1.095   3.712  0.4168 -0.1589 -0.9011
 2725SOL     OW 9368   2.700   0.627   3.286 -0.4271 -0.5676 -0.3993
 2725SOL    HW1 9369   2.618   0.623   3.237  0.3046  0.3136 -1.7393
 2725SOL    HW2 9370   2.705   0.543   3.332 -2.1184 -0.5911 -0.2042
 2726SOL     OW 9371   5.120   6.664   5.263 -0.2125  0.1913  0.5957
 2726SOL    HW1 9372   5.173   6.615   5.325  0.8265  1.2960  0.6289
 2726SOL    HW2 9373   5.177   6.675   5.186 -0.8313  0.3606  0.1498
 2727SOL     OW 9374   8.324   6.075   1.828 -0.2946 -0.2924  0.3325
 2727SOL    HW1 9375   8.402   6.072   1.772 -1.2819 -0.1507 -1.0954
 2727SOL    HW2 9376   8.268   6.141   1.788 -0.2233  1.2806  2.6390
 2728SOL     OW 9377   2.530   3.472   2.165  0.0775  0.8139  0.7945
 2728SOL    HW1 9378   2.619   3.506   2.172  1.1804 -0.7191 -2.9021
 2728SOL    HW2 9379   2.478   3.546   2.134  1.0367  0.8279 -0.9357
 2729SOL     OW 9380   7.937   2.098   7.759 -0.7192 -0.2633 -0.5876
 2729SOL    HW1 9381   8.025   2.061   7.752  0.4074  2.2056 -0.4580
 2729SOL    HW2 9382   7.900   2.056   7.837  0.4697 -1.0431 -0.4072
 2730SOL     OW 9383   1.249   0.070   3.633  0.3667 -0.1648  0.1880
 2730SOL    HW1 9384   1.212   0.158   3.641 -1.1211 -0.9558  3.0684
 2730SOL    HW2 9385   1.174   0.013   3.622  0.7905 -1.5386  3.5014
 2731SOL     OW 9386   3.072   1.181   3.426 -0.1832  0.1773  0.5462
 2731SOL    HW1 9387   3.159   1.145   3.410  0.2299  1.2755  0.2322
 2731SOL    HW2 9388   3.035   1.126   3.494  0.6335 -0.4951  0.4577
 2732SOL     OW 9389   6.047   3.637   0.951  0.1942 -0.3088  0.2384
 2732SOL    HW1 9390   5.956   3.667   0.946  0.5796  0.7664 -0.8213
 2732SOL    HW2 9391   6.041   3.545   0.975 -1.3713 -1.1730 -2.9356
 2733SOL     OW 9392   3.740   2.911   1.978 -0.1261 -0.1524  0.5303
 2733SOL    HW1 9393   3.781   2.828   1.955 -1.0405 -0.9408  1.6105
 2733SOL    HW2 9394   3.801   2.952   2.040 -0.1013 -0.4353  0.6917
 2734SOL     OW 9395   4.168   5.956   7.590  0.6231 -0.6934 -0.0687
 2734SOL    HW1 9396   4.144   6.038   7.632 -1.7904 -2.0213  1.3968
 2734SOL    HW2 9397   4.130   5.961   7.503 -1.4044 -1.0368  0.7521
 2735SOL     OW 9398   0.222   8.460   7.844 -0.4526  0.0006 -0.6100
 2735SOL    HW1 9399   0.171   8.385   7.813  3.5525 -2.4880 -1.9920
 2735SOL    HW2 9400   0.200   8.466   7.937 -2.3520 -1.6186 -0.8748
 2736SOL     OW 9401   6.711   8.578   4.143 -0.4586 -0.3884 -0.8960
 2736SOL    HW1 9402   6.800   8.599   4.173 -0.5662  0.1122 -0.9321
 2736SOL    HW2 9403   6.672   8.662   4.121 -1.2676 -0.5193 -0.0021
 2737SOL     OW 9404   8.539   7.956   4.284 -0.7853 -0.1538  0.0967
 2737SOL    HW1 9405   8.604   8.010   4.239 -2.0713 -0.3983 -2.2153
 2737SOL    HW2 9406   8.484   8.019   4.331  1.4826  0.0065  2.7731
 2738SOL     OW 9407   6.699   1.145   6.465  0.0039  0.4962  0.2352
 2738SOL    HW1 9408   6.692   1.152   6.560  0.7442  0.4576  0.2949
 2738SOL    HW2 9409   6.793   1.151   6.447  0.0127 -1.0737 -0.3575
 2739SOL     OW 9410   1.488   7.735   3.132  0.1638 -0.6781 -0.0176
 2739SOL    HW1 9411   1.457   7.658   3.083 -1.8820 -0.7378  1.2535
 2739SOL    HW2 9412   1.482   7.709   3.224 -0.4414  0.9358  0.4344
 2740SOL     OW 9413   5.976   0.041   6.071 -0.2050 -0.2881  0.2550
 2740SOL    HW1 9414   6.006  -0.011   6.146 -0.2020  0.1310  0.5435
 2740SOL    HW2 9415   5.904  -0.010   6.034  0.2724 -0.8656  0.0912
 2741SOL     OW 9416   3.111   7.945   1.032 -0.1207  0.9867 -0.0087
 2741SOL    HW1 9417   3.111   7.995   1.114  2.9366  0.9222  0.1334
 2741SOL    HW2 9418   3.138   7.857   1.058 -1.7275  0.2433 -0.7744
 2742SOL     OW 9419   1.747   4.679   6.671  0.2656 -0.0333 -0.6234
 2742SOL    HW1 9420   1.719   4.685   6.580  0.0656 -0.3065 -0.5804
 2742SOL    HW2 9421   1.721   4.763   6.710 -1.9082 -0.8518 -0.1931
 2743SOL     OW 9422   7.040   5.655   5.767  0.6301  0.0186  0.1836
 2743SOL    HW1 9423   7.073   5.604   5.693 -1.0698 -0.3307 -0.3718
 2743SOL    HW2 9424   6.977   5.598   5.810 -0.5976  1.2733  0.1267
 2744SOL     OW 9425   3.277   5.538   8.345 -0.4895 -0.5267  0.0652
 2744SOL    HW1 9426   3.226   5.502   8.418  0.7444 -1.2342  0.6138
 2744SOL    HW2 9427   3.355   5.482   8.341  0.7596  1.1572 -0.0375
 2745SOL     OW 9428   7.446   2.435   2.648 -0.1886 -0.2947  0.4257
 2745SOL    HW1 9429   7.416   2.397   2.731  0.0887  0.1284  0.7198
 2745SOL    HW2 9430   7.509   2.371   2.614  0.4954  0.0248  1.0604
 2746SOL     OW 9431   4.445   6.377   4.758  0.4982  0.3972  0.1306
 2746SOL    HW1 9432   4.526   6.325   4.757  0.1976 -0.0903 -1.8967
 2746SOL    HW2 9433   4.408   6.361   4.845  2.3671  0.3217  0.9711
 2747SOL     OW 9434   2.455   7.536   3.680 -0.1601 -0.0053 -0.5460
 2747SOL    HW1 9435   2.405   7.616   3.667  0.6540  0.4133 -1.1992
 2747SOL    HW2 9436   2.427   7.478   3.609 -1.7313 -0.8302  0.6978
 2748SOL     OW 9437   7.840   3.450   7.259  0.1380 -0.6113  0.1222
 2748SOL    HW1 9438   7.931   3.443   7.288  0.7722 -2.0211 -2.0153
 2748SOL    HW2 9439   7.792   3.471   7.339  2.3381  0.4395  1.2822
 2749SOL     OW 9440   0.280   2.663   3.644  0.3848  0.2964  0.0932
 2749SOL    HW1 9441   0.274   2.605   3.719 -1.9298  0.3993  0.0725
 2749SOL    HW2 9442   0.216   2.732   3.662  0.9001  1.1578 -1.2538
 2750SOL     OW 9443   5.290   1.576   7.362  0.5271  0.3724 -0.0985
 2750SOL    HW1 9444   5.332   1.623   7.434  0.5500  0.5379 -0.2182
 2750SOL    HW2 9445   5.352   1.506   7.340  0.7211  0.5887 -0.2433
 2751SOL     OW 9446   5.690   4.144   3.010 -0.4771 -0.8653  0.0373
 2751SOL    HW1 9447   5.693   4.136   3.105 -0.0387  0.0356  0.1133
 2751SOL    HW2 9448   5.756   4.211   2.989 -0.9117 -0.6940 -0.8551
 2752SOL     OW 9449   6.479   5.119   1.352  0.1369 -0.2157  0.3725
 2752SOL    HW1 9450   6.445   5.200   1.313  0.9256 -0.0370  0.0247
 2752SOL    HW2 9451   6.503   5.143   1.441  0.8606  0.0837  0.1078
 2753SOL     OW 9452   4.029   7.737   8.095 -0.2904 -0.1751  0.3575
 2753SOL    HW1 9453   4.006   7.829   8.079  2.4046  0.4537 -0.5914
 2753SOL    HW2 9454   3.994   7.690   8.019  0.3366  0.5122 -0.3854
 2754SOL     OW 9455   5.911   6.375   4.504 -0.7269  0.3630 -0.3049
 2754SOL    HW1 9456   5.889   6.403   4.593 -0.6255 -1.9678  0.5353
 2754SOL    HW2 9457   6.006   6.385   4.499 -0.2581 -2.3972  1.0711
 2755SOL     OW 9458   1.698   1.492   7.964 -0.0513 -0.4753  0.0595
 2755SOL    HW1 9459   1.775   1.441   7.990 -0.8093 -0.3888  2.6632
 2755SOL    HW2 9460   1.641   1.491   8.040 -1.6423  1.3948 -1.0192
 2756SOL     OW 9461   4.313   7.252   0.080 -0.0410 -0.2495  0.1432
 2756SOL    HW1 9462   4.337   7.268  -0.011  0.1908 -0.6752  0.1300
 2756SOL    HW2 9463   4.396   7.240   0.125 -0.1944 -2.8208 -0.1009
 2757SOL     OW 9464   0.728   0.672   4.935  0.2131  0.0876  0.2847
 2757SOL    HW1 9465   0.711   0.723   5.014  0.5360  1.1683 -0.3105
 2757SOL    HW2 9466   0.819   0.644   4.944  0.1000 -0.2068  0.5171
 2758SOL     OW 9467   3.261   7.724   1.048  0.2343  0.4143  0.0479
 2758SOL    HW1 9468   3.267   7.763   0.961 -1.0734 -1.4904 -0.9524
 2758SOL    HW2 9469   3.333   7.661   1.051 -2.6870 -3.4638 -1.9020
 2759SOL     OW 9470   4.123   8.419   1.286 -0.3085 -0.0079 -0.1326
 2759SOL    HW1 9471   4.159   8.352   1.228 -0.1864 -0.8047  0.8393
 2759SOL    HW2 9472   4.138   8.385   1.374  1.5918  2.1769  0.4892
 2760SOL     OW 9473   2.996   5.150   2.191 -0.0763  0.2203 -0.4343
 2760SOL    HW1 9474   3.037   5.227   2.231 -0.5397  0.4920 -0.4792
 2760SOL    HW2 9475   2.910   5.144   2.234 -0.9785  1.0560 -2.0280
 2761SOL     OW 9476   6.507   1.432   8.269  0.0584 -0.1214 -0.3048
 2761SOL    HW1 9477   6.468   1.433   8.181 -0.8015 -0.8717  0.0512
 2761SOL    HW2 9478   6.524   1.340   8.286 -1.4036 -0.1763  1.0060
 2762SOL     OW 9479   0.904   4.470   4.318  0.0877  0.4987  0.0105
 2762SOL    HW1 9480   0.873   4.499   4.232  1.9757 -1.9580 -1.6442
 2762SOL    HW2 9481   0.856   4.389   4.335  0.4675  0.4271  0.7835
 2763SOL     OW 9482   1.456   1.405   8.600  0.0741 -0.0888  0.7186
 2763SOL    HW1 9483   1.551   1.399   8.594  0.1749  1.3463  0.6054
 2763SOL    HW2 9484   1.433   1.349   8.674  1.0415 -0.1590  0.9816
 2764SOL     OW 9485   0.841   4.048   4.737 -0.0055 -0.1494  0.3824
 2764SOL    HW1 9486   0.883   4.096   4.809 -0.8621 -0.0648  0.8394
 2764SOL    HW2 9487   0.913   4.003   4.693  0.6327  0.4330  0.8065
 2765SOL     OW 9488   4.024   4.822   3.586  0.2587 -0.3930  0.1809
 2765SOL    HW1 9489   3.985   4.909   3.586 -0.4701 -0.6854  1.6472
 2765SOL    HW2 9490   4.058   4.811   3.675  2.0711 -0.8707 -0.5410
 2766SOL     OW 9491   7.100   3.815   2.931  0.0298 -0.6294 -0.3376
 2766SOL    HW1 9492   7.056   3.896   2.904 -0.2594 -0.1312  1.4380
 2766SOL    HW2 9493   7.128   3.833   3.021  0.4737 -2.3137 -0.1121
 2767SOL     OW 9494   4.215   4.855   4.409  0.0750  0.1361 -0.2633
 2767SOL    HW1 9495   4.201   4.761   4.414  1.0034  0.0670  1.7486
 2767SOL    HW2 9496   4.128   4.893   4.426 -0.0966 -0.3534 -0.0299
 2768SOL     OW 9497   4.006   3.525   0.259  0.4465  0.2383  0.1348
 2768SOL    HW1 9498   3.931   3.527   0.199  0.5337  1.3838  0.0420
 2768SOL    HW2 9499   3.970   3.554   0.343  0.9693  1.9117 -0.1686
 2769SOL     OW 9500   2.350   7.637   3.356  0.0663  0.0387 -0.3349
 2769SOL    HW1 9501   2.355   7.542   3.366 -1.0649  0.1873  2.6648
 2769SOL    HW2 9502   2.258   7.654   3.334  0.0627  0.4608 -0.0141
 2770SOL     OW 9503   7.775   1.484   7.166  0.5718  0.4338  0.3656
 2770SOL    HW1 9504   7.850   1.541   7.153 -0.9526  2.2210 -1.3016
 2770SOL    HW2 9505   7.802   1.400   7.130  1.6099  1.1766 -0.6418
 2771SOL     OW 9506   6.697   3.469   5.492  0.3866 -0.1242  0.2748
 2771SOL    HW1 9507   6.628   3.420   5.536  0.2856 -0.8424 -0.6576
 2771SOL    HW2 9508   6.772   3.410   5.491  0.7861  0.3621  0.5839
 2772SOL     OW 9509   7.714   4.565   1.475 -0.3437  0.1597  0.1454
 2772SOL    HW1 9510   7.759   4.601   1.551 -1.3746 -1.0828  1.3931
 2772SOL    HW2 9511   7.700   4.473   1.497  1.3564 -0.8550 -2.5312
 2773SOL     OW 9512   0.845   6.206   3.571  0.4585 -0.4563  0.6680
 2773SOL    HW1 9513   0.930   6.240   3.541  0.6040 -1.8952 -0.7129
 2773SOL    HW2 9514   0.782   6.240   3.508  0.4966 -1.9969 -0.2466
 2774SOL     OW 9515   8.144   7.473   8.139 -0.3848  0.6774 -0.0608
 2774SOL    HW1 9516   8.168   7.430   8.057  1.1781 -0.0300  0.7100
 2774SOL    HW2 9517   8.228   7.487   8.184 -1.2253  0.5104  1.6610
 2775SOL     OW 9518   3.591   7.824   2.899 -0.5876  0.1993  0.2226
 2775SOL    HW1 9519   3.604   7.915   2.926 -2.1141  0.0988  1.4254
 2775SOL    HW2 9520   3.544   7.830   2.816 -1.2576  0.5117  0.6219
 2776SOL     OW 9521   0.637   0.750   1.466  0.0537  0.2757  0.1317
 2776SOL    HW1 9522   0.692   0.828   1.472 -0.1532  0.3834  0.6293
 2776SOL    HW2 9523   0.584   0.751   1.545 -0.4289 -0.0106 -0.1825
 2777SOL     OW 9524   2.937   7.651   0.715 -0.2869 -0.3458 -0.1700
 2777SOL    HW1 9525   2.888   7.660   0.797  0.7159  0.1766  0.3835
 2777SOL    HW2 9526   2.889   7.584   0.666 -0.2526 -1.5194  1.3375
 2778SOL     OW 9527   6.328   3.683   6.959  0.3997  0.0339 -0.1792
 2778SOL    HW1 9528   6.366   3.720   6.879  0.6665 -0.1036 -0.1162
 2778SOL    HW2 9529   6.393   3.699   7.027  1.0454 -1.5746 -0.3777
 2779SOL     OW 9530   8.236   7.685   7.511  0.4296 -0.3316 -0.9116
 2779SOL    HW1 9531   8.318   7.647   7.543 -0.2106 -1.1642 -0.2233
 2779SOL    HW2 9532   8.254   7.779   7.508 -0.0251  0.2174  4.0684
 2780SOL     OW 9533   1.332   4.268   1.457  0.1426  0.3973 -0.1812
 2780SOL    HW1 9534   1.383   4.348   1.474 -1.0368  1.3530 -0.9759
 2780SOL    HW2 9535   1.397   4.205   1.427  0.9365  1.4622 -0.8026
 2781SOL     OW 9536   3.330   3.525   6.415  0.0125  0.3044  0.3728
 2781SOL    HW1 9537   3.294   3.558   6.498 -1.5831 -1.3346  0.3941
 2781SOL    HW2 9538   3.275   3.565   6.348 -0.3951 -0.4100  0.2720
 2782SOL     OW 9539   3.433   4.415   5.751 -0.0195 -0.3551  0.0026
 2782SOL    HW1 9540   3.407   4.362   5.676  0.1819 -0.7497  0.2099
 2782SOL    HW2 9541   3.369   4.486   5.753  0.2900 -0.0388 -0.8600
 2783SOL     OW 9542   6.923   2.390   1.993 -0.6784 -0.4353 -0.3504
 2783SOL    HW1 9543   6.993   2.360   1.935 -0.0895  0.4399 -0.1073
 2783SOL    HW2 9544   6.932   2.485   1.995 -2.1582 -0.2548 -0.6653
 2784SOL     OW 9545   0.218   5.738   4.472 -0.0948  0.2240 -0.1185
 2784SOL    HW1 9546   0.175   5.765   4.553  1.2286 -1.0635  1.0560
 2784SOL    HW2 9547   0.159   5.672   4.434 -0.0556 -0.1868  0.5254
 2785SOL     OW 9548   8.488   5.665   5.164 -0.2422 -0.6970 -0.4342
 2785SOL    HW1 9549   8.532   5.697   5.243  0.9360  0.9093 -1.6871
 2785SOL    HW2 9550   8.540   5.589   5.137 -0.1204 -0.7165 -0.1489
 2786SOL     OW 9551   8.434   5.220   2.028  0.1247  0.1536 -0.7561
 2786SOL    HW1 9552   8.515   5.269   2.012  0.6253  0.3788  1.9602
 2786SOL    HW2 9553   8.405   5.249   2.115 -1.3916 -1.9084 -0.4942
 2787SOL     OW 9554   4.480   0.305   3.885 -0.3035  0.3462 -0.0540
 2787SOL    HW1 9555   4.543   0.311   3.956 -0.2641 -0.9436  0.0509
 2787SOL    HW2 9556   4.532   0.284   3.808 -0.6916 -2.8076  0.3994
 2788SOL     OW 9557   2.005   1.027   7.479  0.2112  0.0867 -0.1993
 2788SOL    HW1 9558   2.073   1.077   7.434 -0.1294  0.0501 -0.7798
 2788SOL    HW2 9559   2.027   1.033   7.571  0.8414  0.3088 -0.3597
 2789SOL     OW 9560   8.458   0.919   2.890 -0.0685 -0.2131 -0.3550
 2789SOL    HW1 9561   8.533   0.880   2.845 -0.3961 -2.4903  0.9378
 2789SOL    HW2 9562   8.381   0.880   2.849 -0.3912 -1.5407  1.4047
 2790SOL     OW 9563   4.833   6.728   4.072 -0.0763 -0.3052  0.2082
 2790SOL    HW1 9564   4.803   6.794   4.135 -3.1471  0.7686 -2.1267
 2790SOL    HW2 9565   4.775   6.653   4.086  1.5424 -1.4788  0.9335
 2791SOL     OW 9566   8.074   4.095   2.497 -0.2216  0.1604  0.2401
 2791SOL    HW1 9567   7.985   4.123   2.520 -0.9024  1.2549 -3.1632
 2791SOL    HW2 9568   8.130   4.141   2.560 -1.9963 -0.8696  2.7427
 2792SOL     OW 9569   3.686   5.900   2.615 -0.0362 -0.3592  0.4064
 2792SOL    HW1 9570   3.628   5.902   2.539  0.5961  1.0243 -0.0761
 2792SOL    HW2 9571   3.769   5.865   2.581  1.4097  3.4675 -0.5046
 2793SOL     OW 9572   1.039   4.833   3.371 -0.1483  0.6239  0.0964
 2793SOL    HW1 9573   1.109   4.837   3.306  0.0947 -0.0380  0.3142
 2793SOL    HW2 9574   0.962   4.804   3.322  0.0476  0.0721  0.1141
 2794SOL     OW 9575   2.440   4.114   6.020 -0.3293  0.3493 -0.0343
 2794SOL    HW1 9576   2.386   4.066   6.083 -0.6779 -0.7187 -1.1140
 2794SOL    HW2 9577   2.520   4.063   6.011  0.6848  1.6716  1.1833
 2795SOL     OW 9578   1.182   0.290   0.143 -0.5538 -0.2603 -0.0007
 2795SOL    HW1 9579   1.244   0.244   0.087  1.2490 -1.0510  2.4534
 2795SOL    HW2 9580   1.230   0.367   0.174 -1.9600  0.8522 -0.4807
 2796SOL     OW 9581   0.328   6.253   1.871 -0.0802  0.2114  0.7636
 2796SOL    HW1 9582   0.234   6.240   1.857 -0.1065  0.1681  0.9730
 2796SOL    HW2 9583   0.335   6.344   1.901 -0.0019  0.3734  0.2600
 2797SOL     OW 9584   7.124   7.681   7.566 -0.1354 -0.4914  0.2109
 2797SOL    HW1 9585   7.045   7.698   7.514  1.3583  0.4090 -1.9252
 2797SOL    HW2 9586   7.180   7.629   7.508  1.7681  0.8535  0.7492
 2798SOL     OW 9587   2.032   4.202   7.987 -0.3581 -0.2175  0.4265
 2798SOL    HW1 9588   2.017   4.117   8.026  0.9902 -0.4903  0.3906
 2798SOL    HW2 9589   1.959   4.214   7.926 -0.6945 -1.2190  0.6253
 2799SOL     OW 9590   0.838   2.125   1.485  0.1579  0.8888  0.2661
 2799SOL    HW1 9591   0.758   2.176   1.468  0.5766  0.9705 -1.5837
 2799SOL    HW2 9592   0.806   2.041   1.519 -0.6109  1.6533  1.5181
 2800SOL     OW 9593   5.710   5.110   6.891 -0.1423 -0.0300  0.3458
 2800SOL    HW1 9594   5.670   5.127   6.806 -3.0504 -2.4962  1.0463
 2800SOL    HW2 9595   5.662   5.166   6.952 -0.9508 -1.2540  0.8730
 2801SOL     OW 9596   1.295   3.087   8.525 -0.9016 -0.2058  0.2161
 2801SOL    HW1 9597   1.329   3.067   8.437  0.3539  1.7380  0.1716
 2801SOL    HW2 9598   1.234   3.159   8.511  0.3429  1.0734  1.0128
 2802SOL     OW 9599   5.640   0.167   5.639 -0.1784 -0.0062  0.1457
 2802SOL    HW1 9600   5.677   0.082   5.612 -0.0418  0.0837  0.0489
 2802SOL    HW2 9601   5.683   0.186   5.722  0.7590  0.5803 -0.4497
 2803SOL     OW 9602   1.698   4.397   3.490  0.0358  0.3537  0.1308
 2803SOL    HW1 9603   1.785   4.436   3.485  0.9579 -0.5756  4.5688
 2803SOL    HW2 9604   1.650   4.454   3.551 -1.0085 -1.3953  1.0394
 2804SOL     OW 9605   5.984   5.510   5.448 -0.6126  0.8591 -0.3367
 2804SOL    HW1 9606   6.012   5.590   5.404  1.1722  0.7432  0.4852
 2804SOL    HW2 9607   6.059   5.451   5.441 -1.0702  0.0676  0.9463
 2805SOL     OW 9608   8.042   0.708   6.213  0.3963 -0.2341 -0.0181
 2805SOL    HW1 9609   8.129   0.721   6.175 -0.5085 -0.8529 -2.4725
 2805SOL    HW2 9610   7.989   0.671   6.142 -1.9426  0.2594  1.3431
 2806SOL     OW 9611   8.130   4.040   5.946  0.0551 -0.2079 -0.0305
 2806SOL    HW1 9612   8.100   3.951   5.931 -0.0833  0.0648 -1.4860
 2806SOL    HW2 9613   8.055   4.095   5.924  0.7330  0.3505 -1.0538
 2807SOL     OW 9614   2.224   0.792   4.672  0.0387  0.3601 -0.3138
 2807SOL    HW1 9615   2.151   0.816   4.729  0.5085  0.9839  0.0378
 2807SOL    HW2 9616   2.260   0.713   4.712  1.4676  1.7459  1.3308
 2808SOL     OW 9617   2.434   6.057   8.119 -0.3110  0.5390 -0.2114
 2808SOL    HW1 9618   2.400   6.027   8.035 -1.4411 -1.5385  0.9165
 2808SOL    HW2 9619   2.476   6.141   8.099 -1.1632  0.4573 -2.6962
 2809SOL     OW 9620   7.567   1.840   5.464  0.7336 -0.4233 -0.0025
 2809SOL    HW1 9621   7.623   1.916   5.478  0.3943  0.3924 -2.5747
 2809SOL    HW2 9622   7.623   1.765   5.483  1.3539  0.4024  1.6780
 2810SOL     OW 9623   5.351   8.214   3.694 -0.1374  0.4370 -0.1209
 2810SOL    HW1 9624   5.273   8.175   3.654 -0.4048  0.6500  0.1954
 2810SOL    HW2 9625   5.344   8.307   3.676  0.0502  0.4562 -0.1004
 2811SOL     OW 9626   6.333   8.604   6.186  0.1026  0.1869  0.1099
 2811SOL    HW1 9627   6.406   8.581   6.244 -0.8182 -1.4683  0.6516
 2811SOL    HW2 9628   6.304   8.690   6.218  1.5429  0.6866  0.1329
 2812SOL     OW 9629   0.165   7.645   4.944  0.1070 -0.0765  1.2105
 2812SOL    HW1 9630   0.245   7.683   4.908 -1.0851  1.5108  0.1723
 2812SOL    HW2 9631   0.167   7.670   5.037  0.5125  0.4420  1.0652
 2813SOL     OW 9632   5.616   3.294   0.732  0.3123  0.0311  0.0828
 2813SOL    HW1 9633   5.645   3.379   0.764  0.0189 -0.4440  1.6933
 2813SOL    HW2 9634   5.524   3.307   0.709  0.7202  0.5669 -1.4034
 2814SOL     OW 9635   5.163   4.134   2.376  0.2366 -0.4027  0.1467
 2814SOL    HW1 9636   5.197   4.047   2.399  2.3972  0.8601  2.3493
 2814SOL    HW2 9637   5.072   4.119   2.352  1.3256 -3.6549 -2.7951
 2815SOL     OW 9638   0.055   0.211   4.809 -0.2123 -0.0901  0.2114
 2815SOL    HW1 9639   0.016   0.294   4.779 -0.5812  0.1286  1.2643
 2815SOL    HW2 9640  -0.013   0.172   4.864  0.4264 -0.5146  0.7007
 2816SOL     OW 9641   3.458   4.579   1.183 -0.0549  0.1311  0.0708
 2816SOL    HW1 9642   3.484   4.516   1.251 -1.9289 -0.9240 -0.1192
 2816SOL    HW2 9643   3.459   4.664   1.228  0.7492 -0.2642  0.8354
 2817SOL     OW 9644   5.376   1.632   3.971 -0.2641 -0.0675 -0.2318
 2817SOL    HW1 9645   5.301   1.599   4.021  1.6337 -1.1555  2.0543
 2817SOL    HW2 9646   5.407   1.556   3.921  1.4749 -0.7224  1.7015
 2818SOL     OW 9647   6.542   4.613   0.653 -0.5231  0.1536  0.6827
 2818SOL    HW1 9648   6.632   4.645   0.647 -0.8378  0.8825 -0.5145
 2818SOL    HW2 9649   6.549   4.531   0.702  0.8304  0.0650  0.3883
 2819SOL     OW 9650   5.982   3.764   7.883  0.3344  0.2353 -0.0089
 2819SOL    HW1 9651   5.936   3.822   7.823 -0.3212  0.4174  0.6506
 2819SOL    HW2 9652   5.961   3.676   7.853 -0.7990  0.3077  0.5217
 2820SOL     OW 9653   2.999   0.691   2.998  0.2809 -0.0641  0.0603
 2820SOL    HW1 9654   2.949   0.735   3.068  1.2974  0.0812  0.7080
 2820SOL    HW2 9655   3.027   0.608   3.037  1.0136  0.0983 -0.1134
 2821SOL     OW 9656   1.271   7.296   5.543  0.8188 -0.2996 -0.1092
 2821SOL    HW1 9657   1.281   7.322   5.635  3.1513  0.0487 -0.4045
 2821SOL    HW2 9658   1.243   7.376   5.499  0.2286 -0.3279  0.2094
 2822SOL     OW 9659   5.350   8.164   2.558  0.0779 -0.4485 -0.1361
 2822SOL    HW1 9660   5.365   8.234   2.495 -0.4560 -0.3654 -0.1819
 2822SOL    HW2 9661   5.333   8.209   2.641  1.2431 -0.5715  0.1745
 2823SOL     OW 9662   7.498   1.539   0.086 -0.8121 -0.6678  0.1442
 2823SOL    HW1 9663   7.469   1.581   0.167 -1.0495 -2.0986  0.8517
 2823SOL    HW2 9664   7.581   1.581   0.065 -0.3154 -0.8231  1.6290
 2824SOL     OW 9665   1.792   3.187   1.088 -0.2348  0.0378  0.5614
 2824SOL    HW1 9666   1.886   3.181   1.105 -0.0297 -0.9477 -0.7361
 2824SOL    HW2 9667   1.753   3.208   1.173  1.0876 -0.2474  1.2615
 2825SOL     OW 9668   4.890   1.757   5.545 -0.2020  0.2799 -0.8305
 2825SOL    HW1 9669   4.913   1.824   5.608 -0.4164 -1.2943  1.0044
 2825SOL    HW2 9670   4.817   1.710   5.585 -0.5330 -0.6074 -2.3796
 2826SOL     OW 9671   3.443   1.064   0.386 -0.1630 -0.5146 -0.0277
 2826SOL    HW1 9672   3.528   1.107   0.385 -0.4853  0.1583 -1.9086
 2826SOL    HW2 9673   3.450   0.995   0.319 -1.6120  0.7044 -1.5361
 2827SOL     OW 9674   3.325   0.876   5.903  0.3205 -0.0535 -0.2920
 2827SOL    HW1 9675   3.275   0.957   5.892  1.6870  0.7499 -0.9108
 2827SOL    HW2 9676   3.309   0.826   5.823  0.1780  0.0175 -0.3077
 2828SOL     OW 9677   0.179   7.615   5.520 -0.1009 -0.5012  0.1502
 2828SOL    HW1 9678   0.234   7.558   5.573  0.3486  0.3207  0.5861
 2828SOL    HW2 9679   0.184   7.578   5.432  2.0425  0.1624 -0.0589
 2829SOL     OW 9680   2.888   1.278   5.232  0.1465 -0.0151  0.6504
 2829SOL    HW1 9681   2.924   1.359   5.269 -0.8657  0.6801  0.1826
 2829SOL    HW2 9682   2.797   1.277   5.262  0.2388 -1.1639  0.9216
 2830SOL     OW 9683   5.276   1.821   1.981 -0.1784 -0.0485  0.2125
 2830SOL    HW1 9684   5.190   1.784   2.004  0.0284 -0.1196  0.8914
 2830SOL    HW2 9685   5.287   1.895   2.041 -0.1761  0.5475 -0.5136
 2831SOL     OW 9686   5.280   7.639   7.949 -0.2098 -0.6525  0.0801
 2831SOL    HW1 9687   5.214   7.611   8.012  0.4937 -2.8804 -0.0756
 2831SOL    HW2 9688   5.346   7.685   8.002 -0.4949 -0.9296  0.6813
 2832SOL     OW 9689   8.221   6.547   2.143  0.0218 -0.6360  0.1811
 2832SOL    HW1 9690   8.251   6.572   2.230  0.4302 -0.4625 -0.0058
 2832SOL    HW2 9691   8.231   6.626   2.090 -2.1741 -0.1312  0.4502
 2833SOL     OW 9692   1.228   3.781   8.100 -0.3446 -0.1569  0.4390
 2833SOL    HW1 9693   1.295   3.822   8.154 -0.3781 -0.3218  0.6071
 2833SOL    HW2 9694   1.146   3.796   8.148 -0.2666 -1.0592  0.8806
 2834SOL     OW 9695   3.463   5.758   8.470  0.1417 -0.4038 -0.8810
 2834SOL    HW1 9696   3.412   5.695   8.420 -1.6031  2.2165 -2.7035
 2834SOL    HW2 9697   3.409   5.778   8.546  0.4688 -0.7251 -0.5599
 2835SOL     OW 9698   2.589   7.868   2.763  0.7195 -0.3530 -0.0391
 2835SOL    HW1 9699   2.654   7.925   2.724  1.1423  0.3880  1.6449
 2835SOL    HW2 9700   2.559   7.812   2.692  2.0689  0.3354 -1.1789
 2836SOL     OW 9701   2.250   8.556   6.336 -0.0440 -0.0113  0.0777
 2836SOL    HW1 9702   2.288   8.623   6.280  1.0246 -0.4702  0.2277
 2836SOL    HW2 9703   2.302   8.477   6.318 -1.8266 -1.0542 -0.7474
 2837SOL     OW 9704   1.579   4.964   6.258 -0.3450 -0.4258  0.4150
 2837SOL    HW1 9705   1.487   4.939   6.247  0.1810 -2.3463 -0.0685
 2837SOL    HW2 9706   1.618   4.950   6.172  0.5666 -0.4692  0.8234
 2838SOL     OW 9707   5.513   6.896   2.670 -0.6122 -0.0329  0.4720
 2838SOL    HW1 9708   5.473   6.982   2.665  0.1563  0.2844 -0.4154
 2838SOL    HW2 9709   5.486   6.862   2.756 -1.8552  0.6075  0.3502
 2839SOL     OW 9710   8.116   6.543   8.471  0.1038 -0.1290 -0.5772
 2839SOL    HW1 9711   8.096   6.626   8.513  0.3601  0.2433 -1.1672
 2839SOL    HW2 9712   8.207   6.552   8.442 -0.1092 -0.3030 -1.3461
 2840SOL     OW 9713   5.257   0.565   3.196  0.5002  0.2915  0.1925
 2840SOL    HW1 9714   5.345   0.581   3.162 -0.0671 -0.8754 -1.9881
 2840SOL    HW2 9715   5.208   0.644   3.175  0.1107 -0.4747 -2.0484
 2841SOL     OW 9716   0.459   7.239   8.453  0.4960  0.0753 -0.1084
 2841SOL    HW1 9717   0.532   7.248   8.392 -0.7287  0.0120 -1.6648
 2841SOL    HW2 9718   0.492   7.183   8.523  1.3390 -1.5902 -1.7676
 2842SOL     OW 9719   1.156   8.431   3.163 -0.3434  0.3614  0.0618
 2842SOL    HW1 9720   1.218   8.373   3.118  0.6938  0.3877  1.3877
 2842SOL    HW2 9721   1.160   8.403   3.254 -0.3923  2.0339  0.5911
 2843SOL     OW 9722   2.812   6.696   1.343 -0.3115 -0.3287  0.0555
 2843SOL    HW1 9723   2.773   6.609   1.355 -0.0931 -0.1566  2.4790
 2843SOL    HW2 9724   2.748   6.757   1.378  0.0407  0.3938 -0.5254
 2844SOL     OW 9725   1.142   5.717   4.852 -0.3537 -0.1442 -0.0544
 2844SOL    HW1 9726   1.158   5.773   4.928 -0.6088 -1.8749  1.3542
 2844SOL    HW2 9727   1.079   5.652   4.883  0.7378 -1.8597 -1.2450
 2845SOL     OW 9728   5.798   5.889   7.053 -0.1043 -0.2116  0.7198
 2845SOL    HW1 9729   5.828   5.812   7.006 -0.2926 -0.7675  1.4922
 2845SOL    HW2 9730   5.750   5.940   6.988  2.1913  0.5581 -0.4897
 2846SOL     OW 9731   1.465   5.212   7.827 -0.3181  0.3176 -0.3535
 2846SOL    HW1 9732   1.439   5.294   7.868  1.9192  0.9124  0.0071
 2846SOL    HW2 9733   1.520   5.169   7.893  0.5620 -0.3035 -1.4548
 2847SOL     OW 9734   7.167   0.470   4.537 -0.4074 -0.2458 -0.1211
 2847SOL    HW1 9735   7.184   0.521   4.458  2.3008 -1.4906 -0.4385
 2847SOL    HW2 9736   7.175   0.379   4.510 -1.0664 -0.7547  1.2780
 2848SOL     OW 9737   1.468   7.439   6.125  0.3270  0.4217  0.0776
 2848SOL    HW1 9738   1.504   7.423   6.212  0.1529  2.1672  0.5208
 2848SOL    HW2 9739   1.537   7.408   6.065  2.3410  2.8958  0.9040
 2849SOL     OW 9740   7.736   7.878   0.560  0.5829  0.4886  0.6645
 2849SOL    HW1 9741   7.786   7.958   0.548  1.3410 -0.3633 -3.1720
 2849SOL    HW2 9742   7.663   7.886   0.499 -0.1622 -1.1624  1.2777
 2850SOL     OW 9743   6.549   3.515   3.943 -0.0169  0.1964 -0.3074
 2850SOL    HW1 9744   6.477   3.501   4.005  0.6356  2.1782  0.9992
 2850SOL    HW2 9745   6.551   3.435   3.891 -0.3858 -1.7797  2.4480
 2851SOL     OW 9746   1.834   2.091   2.583 -0.0891  0.2634 -0.5120
 2851SOL    HW1 9747   1.743   2.104   2.612  0.1385  0.9812 -0.0939
 2851SOL    HW2 9748   1.843   2.149   2.508 -0.3747 -0.8476 -1.4496
 2852SOL     OW 9749   7.332   0.665   0.089  0.3287  0.4716  0.0389
 2852SOL    HW1 9750   7.403   0.644   0.150  0.9382  2.5098  0.1191
 2852SOL    HW2 9751   7.309   0.581   0.049  1.0389 -0.6538  1.8501
 2853SOL     OW 9752   1.968   7.857   5.088 -0.0863  0.4902 -0.3631
 2853SOL    HW1 9753   2.010   7.873   5.003  0.0074 -1.3520 -0.7205
 2853SOL    HW2 9754   1.950   7.763   5.088 -0.3902  0.5064  1.5362
 2854SOL     OW 9755   6.835   2.046   4.119 -0.0198 -0.4052  0.4957
 2854SOL    HW1 9756   6.882   2.032   4.037 -0.3208  3.4180 -0.4954
 2854SOL    HW2 9757   6.902   2.078   4.180 -0.5537  1.2799  0.2532
 2855SOL     OW 9758   1.597   7.117   3.825  0.1562  0.4426  0.3500
 2855SOL    HW1 9759   1.573   7.163   3.744  2.2086  0.4546 -0.3143
 2855SOL    HW2 9760   1.663   7.173   3.866 -0.1242 -0.0633  1.5409
 2856SOL     OW 9761   0.118   1.522   8.273  0.1981 -0.6807  0.3456
 2856SOL    HW1 9762   0.081   1.605   8.300  0.1547 -0.5012 -0.2401
 2856SOL    HW2 9763   0.159   1.486   8.352 -0.4204 -0.4536  0.7769
 2857SOL     OW 9764   3.675   7.549   3.737 -0.1330 -0.2178  0.5903
 2857SOL    HW1 9765   3.650   7.480   3.676 -0.2737 -0.0178  0.4190
 2857SOL    HW2 9766   3.620   7.533   3.814  1.1352 -1.3970  1.2910
 2858SOL     OW 9767   0.892   4.081   8.260  0.1844  0.2119 -0.2589
 2858SOL    HW1 9768   0.839   4.006   8.234  0.4641 -0.3688  0.7846
 2858SOL    HW2 9769   0.966   4.080   8.199  1.2773 -1.6386  0.9811
 2859SOL     OW 9770   7.423   3.622   3.698  0.1459  0.5219  0.3530
 2859SOL    HW1 9771   7.447   3.562   3.627  0.1159  0.7199  0.1753
 2859SOL    HW2 9772   7.361   3.573   3.751 -0.4337  0.6542 -0.1942
 2860SOL     OW 9773   2.716   5.880   3.973 -0.5360  0.4174 -0.2569
 2860SOL    HW1 9774   2.757   5.892   3.887  0.7859  0.5412  0.3754
 2860SOL    HW2 9775   2.623   5.898   3.957 -0.4068 -0.0528 -1.7611
 2861SOL     OW 9776   1.634   2.852   5.504 -0.3357  0.1748  0.3070
 2861SOL    HW1 9777   1.699   2.920   5.487 -0.2311 -0.2862 -1.2680
 2861SOL    HW2 9778   1.663   2.813   5.587 -0.0339  1.5879  0.9127
 2862SOL     OW 9779   1.122   0.652   4.807  0.2022  0.1264 -0.3938
 2862SOL    HW1 9780   1.063   0.651   4.731 -4.3076  0.1161  2.7308
 2862SOL    HW2 9781   1.113   0.564   4.845 -0.0734  1.0037  1.7090
 2863SOL     OW 9782   4.436   2.666   3.264  0.0213 -0.4082  0.0280
 2863SOL    HW1 9783   4.386   2.637   3.188  0.3548 -1.0557  0.0519
 2863SOL    HW2 9784   4.371   2.708   3.321 -0.4831 -1.1417  0.0090
 2864SOL     OW 9785   7.196   0.067   6.584  0.1756  0.5818 -0.4806
 2864SOL    HW1 9786   7.288   0.091   6.577  0.3282 -0.3863 -2.1118
 2864SOL    HW2 9787   7.150   0.136   6.537  0.1021  0.7454 -0.1752
 2865SOL     OW 9788   0.151   4.632   6.221  0.8662  0.5479  0.0054
 2865SOL    HW1 9789   0.188   4.697   6.161  0.5686  1.6726  0.9902
 2865SOL    HW2 9790   0.223   4.610   6.280  1.7002 -1.9431 -1.8129
 2866SOL     OW 9791   4.360   4.165   1.926 -0.1105  0.3244 -0.6028
 2866SOL    HW1 9792   4.387   4.190   1.837  1.7435  0.1308 -0.1268
 2866SOL    HW2 9793   4.415   4.090   1.948 -0.9144  0.0423  0.5266
 2867SOL     OW 9794   0.489   5.361   2.885 -0.0860 -0.2800 -0.2742
 2867SOL    HW1 9795   0.576   5.335   2.854 -0.7979 -0.7814 -1.9972
 2867SOL    HW2 9796   0.498   5.455   2.904  1.9005 -1.0546  3.7884
 2868SOL     OW 9797   7.144   0.850   1.491 -0.7663 -0.5237 -0.2551
 2868SOL    HW1 9798   7.141   0.754   1.480  0.2016 -1.0014  2.7387
 2868SOL    HW2 9799   7.149   0.884   1.402 -1.2582 -3.2504 -1.4286
 2869SOL     OW 9800   1.673   6.000   6.573  0.0797  0.0857  0.2880
 2869SOL    HW1 9801   1.766   5.977   6.570  1.0747  3.5831  0.1623
 2869SOL    HW2 9802   1.672   6.095   6.583 -3.5263  0.1064  0.9612
 2870SOL     OW 9803   1.024   6.609   0.215  0.4224 -0.6104  0.2965
 2870SOL    HW1 9804   1.039   6.703   0.211  1.9930 -0.8683 -1.7076
 2870SOL    HW2 9805   0.933   6.600   0.244 -0.2496  1.5453 -0.9279
 2871SOL     OW 9806   7.997   2.504   5.764 -0.0489  0.6722 -0.0841
 2871SOL    HW1 9807   8.050   2.583   5.774 -0.4649  1.3253 -2.4033
 2871SOL    HW2 9808   7.996   2.488   5.670 -0.4240 -1.8135  0.2910
 2872SOL     OW 9809   2.091   1.461   4.617 -0.5858  0.3376  0.2383
 2872SOL    HW1 9810   2.038   1.541   4.611  0.4157  1.0376  0.4805
 2872SOL    HW2 9811   2.073   1.428   4.705 -0.8086  0.4324  0.2307
 2873SOL     OW 9812   8.154   2.658   1.280 -0.7748 -0.0046 -0.2627
 2873SOL    HW1 9813   8.214   2.584   1.269  0.2262  0.9671 -1.7510
 2873SOL    HW2 9814   8.131   2.657   1.373  1.6630 -0.3358  0.4011
 2874SOL     OW 9815   3.177   5.085   6.149  0.0324 -0.6999  0.1117
 2874SOL    HW1 9816   3.201   5.027   6.077 -0.7550 -1.4223  0.4101
 2874SOL    HW2 9817   3.084   5.067   6.165  0.3572 -1.0993  1.7721
 2875SOL     OW 9818   0.540   6.534   4.283  0.4643  0.4579 -0.0913
 2875SOL    HW1 9819   0.474   6.527   4.214  0.2642 -1.0914  0.2179
 2875SOL    HW2 9820   0.615   6.575   4.240  0.4841 -0.8159 -1.3637
 2876SOL     OW 9821   1.246   0.819   4.478 -0.1182 -0.1725 -0.0811
 2876SOL    HW1 9822   1.276   0.772   4.555  1.8205  2.0359  0.6354
 2876SOL    HW2 9823   1.275   0.766   4.403 -0.3959 -1.4099  0.6677
 2877SOL     OW 9824   3.920   7.432   7.972 -0.5028 -0.2089  0.9464
 2877SOL    HW1 9825   4.013   7.453   7.973 -0.5337 -0.0624  0.8061
 2877SOL    HW2 9826   3.876   7.515   7.953 -0.5802 -0.5524 -0.4316
 2878SOL     OW 9827   1.325   6.419   6.166  0.1278  0.0890 -0.7167
 2878SOL    HW1 9828   1.408   6.371   6.168  0.4749  0.6944 -0.0337
 2878SOL    HW2 9829   1.270   6.374   6.230  0.6401  0.8995  0.3264
 2879SOL     OW 9830   7.724   7.230   1.462  0.5814  0.0992  0.1876
 2879SOL    HW1 9831   7.647   7.283   1.442 -0.3075 -1.4105 -0.4681
 2879SOL    HW2 9832   7.790   7.294   1.490  0.1195  1.7536 -2.2319
 2880SOL     OW 9833   6.996   0.929   5.321  0.0794 -0.1473 -0.0000
 2880SOL    HW1 9834   6.950   0.994   5.375  0.3584 -0.3483  0.4860
 2880SOL    HW2 9835   6.971   0.844   5.359  0.1354 -0.3015 -0.3030
 2881SOL     OW 9836   6.061   7.381   5.392 -0.1483 -0.1208 -0.3555
 2881SOL    HW1 9837   5.976   7.406   5.355 -0.1111  0.0816 -0.3058
 2881SOL    HW2 9838   6.040   7.357   5.483  0.1542  2.0916  0.3784
 2882SOL     OW 9839   5.446   6.806   3.946  0.2048 -0.5922  0.3403
 2882SOL    HW1 9840   5.393   6.727   3.955 -2.1409  0.5523 -2.1880
 2882SOL    HW2 9841   5.516   6.781   3.886  0.0055 -1.0022  0.2694
 2883SOL     OW 9842   6.106   0.038   6.517 -0.1106  0.5774 -0.0270
 2883SOL    HW1 9843   6.140   0.123   6.548 -1.9121  1.2325  0.2778
 2883SOL    HW2 9844   6.101  -0.016   6.595 -0.8285  0.8712  0.1372
 2884SOL     OW 9845   2.884   5.925   3.393  0.3837 -0.1999  0.3082
 2884SOL    HW1 9846   2.887   5.859   3.462  0.0368 -1.2944 -0.6895
 2884SOL    HW2 9847   2.845   5.880   3.318  0.6690  0.9789 -0.5849
 2885SOL     OW 9848   7.320   1.990   7.841 -0.0703 -0.4606 -0.4243
 2885SOL    HW1 9849   7.347   2.016   7.752  0.6961 -0.1810 -0.1181
 2885SOL    HW2 9850   7.401   1.993   7.892 -0.3711 -1.3718  0.1144
 2886SOL     OW 9851   5.331   1.816   4.481 -0.4225  0.4307  0.1146
 2886SOL    HW1 9852   5.265   1.752   4.507  1.8074 -1.7947  0.6289
 2886SOL    HW2 9853   5.380   1.773   4.411 -0.2538  2.5461 -1.1693
 2887SOL     OW 9854   3.503   7.767   3.883 -0.7388  0.0040 -0.2769
 2887SOL    HW1 9855   3.478   7.732   3.968 -0.4104 -0.6031 -0.4219
 2887SOL    HW2 9856   3.591   7.732   3.867 -0.6592  0.3850 -0.7159
 2888SOL     OW 9857   7.584   4.307   6.662  0.1163 -0.2906 -0.6597
 2888SOL    HW1 9858   7.619   4.230   6.618 -1.7439 -0.7402 -1.4393
 2888SOL    HW2 9859   7.582   4.283   6.755  1.9800 -0.1607 -0.5462
 2889SOL     OW 9860   5.610   6.072   1.573 -0.2553 -0.1745 -0.3126
 2889SOL    HW1 9861   5.571   6.153   1.539 -1.4674 -1.0150 -1.0000
 2889SOL    HW2 9862   5.602   6.080   1.668 -1.5056  0.0024 -0.4112
 2890SOL     OW 9863   2.972   1.118   6.255  0.3470 -0.0800  0.1548
 2890SOL    HW1 9864   3.037   1.053   6.283 -2.1025 -2.6726  0.2107
 2890SOL    HW2 9865   2.923   1.138   6.334  0.2187  0.8811 -0.1522
 2891SOL     OW 9866   4.159   5.745   4.641 -0.1324  0.2564  0.1252
 2891SOL    HW1 9867   4.110   5.772   4.719  0.6193  0.9407  0.3770
 2891SOL    HW2 9868   4.211   5.822   4.617 -2.0866  0.9056 -2.4916
 2892SOL     OW 9869   4.612   1.498   2.224  0.3255 -0.3956 -0.1236
 2892SOL    HW1 9870   4.610   1.434   2.153  0.4658 -1.5597  0.8789
 2892SOL    HW2 9871   4.543   1.560   2.202 -0.7985 -1.6967 -0.4315
 2893SOL     OW 9872   2.298   0.647   5.062 -0.3641  0.3531 -0.0805
 2893SOL    HW1 9873   2.336   0.566   5.096 -1.7042  0.2285  1.2307
 2893SOL    HW2 9874   2.309   0.641   4.967  3.6758  0.7677  0.1891
 2894SOL     OW 9875   7.020   5.708   3.644  0.4938 -0.1204  0.1057
 2894SOL    HW1 9876   7.002   5.676   3.556 -2.9485 -0.1089  0.6489
 2894SOL    HW2 9877   6.994   5.636   3.702  3.6672 -0.5373  1.2122
 2895SOL     OW 9878   3.159   6.908   1.522  0.5497  0.5467  0.1875
 2895SOL    HW1 9879   3.072   6.886   1.555 -0.1902 -0.2129 -2.0706
 2895SOL    HW2 9880   3.155   7.001   1.502  0.3608  0.5871  0.4179
 2896SOL     OW 9881   0.803   6.471   0.310 -0.3957 -0.0797 -0.8664
 2896SOL    HW1 9882   0.746   6.534   0.266 -0.5768  0.3891  0.0155
 2896SOL    HW2 9883   0.760   6.386   0.296 -0.5466  0.0879 -1.4286
 2897SOL     OW 9884   2.802   0.990   0.475 -0.1344 -0.5861 -0.2488
 2897SOL    HW1 9885   2.825   1.034   0.557  0.8059  0.0254 -0.8294
 2897SOL    HW2 9886   2.846   1.041   0.407 -2.2116 -0.0872 -1.3159
 2898SOL     OW 9887   3.643   5.229   4.267  0.0125 -0.0544  0.1895
 2898SOL    HW1 9888   3.584   5.163   4.229  0.1008  0.8577 -1.6315
 2898SOL    HW2 9889   3.729   5.186   4.267 -0.3040 -0.7222  1.1240
 2899SOL     OW 9890   0.927   8.185   5.316  0.1908  0.0322  0.2049
 2899SOL    HW1 9891   0.991   8.146   5.257 -0.9769  0.6212 -1.5274
 2899SOL    HW2 9892   0.968   8.265   5.348  0.0637  0.8293 -1.5257
 2900SOL     OW 9893   5.013   6.160   3.062  0.3508  0.2066 -0.7422
 2900SOL    HW1 9894   4.965   6.106   3.125  0.2436 -1.6040 -2.2870
 2900SOL    HW2 9895   5.104   6.131   3.070  0.8377  1.8968  0.4354
 2901SOL     OW 9896   5.546   6.503   0.434 -0.2854  0.4330 -0.6651
 2901SOL    HW1 9897   5.553   6.449   0.513  0.5036  1.7896  0.2228
 2901SOL    HW2 9898   5.592   6.453   0.367 -1.3819 -0.9722 -0.4265
 2902SOL     OW 9899   6.846   3.822   4.872 -0.1655 -0.2503 -0.4827
 2902SOL    HW1 9900   6.781   3.891   4.875 -0.6631 -0.7289 -0.0976
 2902SOL    HW2 9901   6.889   3.833   4.787  0.1533  0.8779 -0.1820
 2903SOL     OW 9902   1.029   6.391   4.922  0.0076  0.1477  0.1985
 2903SOL    HW1 9903   0.992   6.469   4.880  0.4217  1.7680  2.6057
 2903SOL    HW2 9904   0.980   6.318   4.886 -0.8663  1.5845 -1.6690
 2904SOL     OW 9905   0.552   4.428   7.405  0.1580  0.3592 -0.3629
 2904SOL    HW1 9906   0.489   4.391   7.343 -1.0219  0.1833  0.9129
 2904SOL    HW2 9907   0.634   4.381   7.386 -0.8391 -1.6292 -0.0320
 2905SOL     OW 9908   3.690   5.387   2.852 -0.3120  0.0604 -0.2748
 2905SOL    HW1 9909   3.652   5.461   2.805  0.5095  1.0247  0.5232
 2905SOL    HW2 9910   3.645   5.387   2.936 -0.8150 -0.8102 -0.5351
 2906SOL     OW 9911   4.472   8.586   3.209  0.1786  0.2728  0.0135
 2906SOL    HW1 9912   4.424   8.603   3.290  0.7370  0.9966  0.2092
 2906SOL    HW2 9913   4.536   8.657   3.204 -0.5872  0.8988 -1.6353
 2907SOL     OW 9914   3.252   5.096   7.133 -0.0377 -0.0173  0.2761
 2907SOL    HW1 9915   3.272   5.178   7.089  1.1004 -1.1488 -1.4249
 2907SOL    HW2 9916   3.162   5.106   7.163 -0.3779  1.3514 -1.0748
 2908SOL     OW 9917   4.742   3.656   4.274 -0.1528  0.4725 -0.5179
 2908SOL    HW1 9918   4.823   3.631   4.231  0.5927  0.6441  0.7476
 2908SOL    HW2 9919   4.724   3.586   4.336 -0.3720  0.9712 -0.0076
 2909SOL     OW 9920   3.548   1.138   5.637  0.2631  0.0937  0.6200
 2909SOL    HW1 9921   3.500   1.063   5.601 -1.1524  0.4494  1.6869
 2909SOL    HW2 9922   3.480   1.201   5.659  1.3893  1.4341  0.3715
 2910SOL     OW 9923   4.890   7.168   2.044 -0.3672  0.2429 -0.1649
 2910SOL    HW1 9924   4.969   7.221   2.054  0.2281 -0.1700 -2.1235
 2910SOL    HW2 9925   4.874   7.131   2.131  0.6973  1.5481  0.6251
 2911SOL     OW 9926   2.970   0.070   4.309  0.1868  0.2427 -0.2014
 2911SOL    HW1 9927   2.964  -0.006   4.251 -0.1688 -0.5661  0.8546
 2911SOL    HW2 9928   2.891   0.121   4.291  0.5697  0.5184 -1.1208
 2912SOL     OW 9929   4.642   7.023   4.615  0.6700  0.3424  0.4951
 2912SOL    HW1 9930   4.677   6.979   4.538  1.6723  0.3471  0.9268
 2912SOL    HW2 9931   4.643   6.956   4.684 -0.2746  0.3191  0.4949
 2913SOL     OW 9932   2.614   4.177   0.169 -0.6309 -0.4362  0.1056
 2913SOL    HW1 9933   2.687   4.240   0.169 -1.5157  0.6357 -0.8656
 2913SOL    HW2 9934   2.615   4.140   0.257  0.0236  0.8238  0.6618
 2914SOL     OW 9935   4.307   3.038   7.436  0.2843 -0.5218  0.2831
 2914SOL    HW1 9936   4.302   3.051   7.341 -0.0203  1.0279  0.4880
 2914SOL    HW2 9937   4.401   3.034   7.454  0.3371 -1.3242 -0.1363
 2915SOL     OW 9938   2.231   3.690   5.963 -0.8466 -0.2940 -0.9383
 2915SOL    HW1 9939   2.172   3.735   5.902 -1.1534  0.4815 -0.0822
 2915SOL    HW2 9940   2.223   3.738   6.045  0.2127 -0.8021 -0.5156
 2916SOL     OW 9941   2.322   6.789   0.025  0.3487  0.0933  0.2493
 2916SOL    HW1 9942   2.407   6.753   0.050 -0.2013 -1.5510 -0.1304
 2916SOL    HW2 9943   2.340   6.836  -0.057  1.2715  1.6507  1.2860
 2917SOL     OW 9944   1.117   2.360   4.834 -0.3708  0.3424 -0.2294
 2917SOL    HW1 9945   1.210   2.342   4.849 -0.5527  0.2171  0.7989
 2917SOL    HW2 9946   1.116   2.430   4.768  0.4182 -0.6689 -1.3571
 2918SOL     OW 9947   2.042   4.884   4.395 -0.1361  0.0891  0.0040
 2918SOL    HW1 9948   2.061   4.977   4.408  0.5010  0.2867 -1.9942
 2918SOL    HW2 9949   1.984   4.882   4.320 -1.3065 -1.0834  0.8908
 2919SOL     OW 9950   0.800   5.820   3.158  0.0652 -0.8296 -0.1539
 2919SOL    HW1 9951   0.748   5.865   3.091  0.0995 -0.8849 -0.2176
 2919SOL    HW2 9952   0.754   5.838   3.240  1.1129  0.9447  0.1057
 2920SOL     OW 9953   4.553   2.965   2.316  0.2021  0.7943  0.4526
 2920SOL    HW1 9954   4.525   3.047   2.357 -1.4820 -0.7752  2.6340
 2920SOL    HW2 9955   4.475   2.932   2.271  0.6526  0.0188  0.2136
 2921SOL     OW 9956   4.022   5.073   3.746  0.3214 -0.3558 -0.2402
 2921SOL    HW1 9957   4.075   5.046   3.820 -1.0412  1.6924  1.6018
 2921SOL    HW2 9958   3.941   5.106   3.785  0.1429  2.2423 -2.4718
 2922SOL     OW 9959   6.671   0.702   3.526 -0.2484 -0.2101  0.1246
 2922SOL    HW1 9960   6.601   0.644   3.494  0.1298 -1.4252  1.4034
 2922SOL    HW2 9961   6.674   0.773   3.462 -0.6440 -1.6640 -1.6066
 2923SOL     OW 9962   1.324   6.762   7.076 -1.2292 -0.2055  0.3193
 2923SOL    HW1 9963   1.340   6.840   7.023  0.5662 -0.7025  0.0322
 2923SOL    HW2 9964   1.286   6.795   7.157 -0.0012  1.0499  0.4242
 2924SOL     OW 9965   2.223   5.204   3.190 -0.1496  0.7085 -0.0139
 2924SOL    HW1 9966   2.193   5.250   3.111  2.2660  0.5756 -1.0970
 2924SOL    HW2 9967   2.233   5.273   3.255 -1.9888  0.8468  0.1892
 2925SOL     OW 9968   8.193   1.401   4.216 -0.0323  0.1032  0.1873
 2925SOL    HW1 9969   8.108   1.394   4.171  0.9137 -0.2521 -1.6587
 2925SOL    HW2 9970   8.173   1.445   4.299 -2.1125 -0.5872  0.1124
 2926SOL     OW 9971   6.904   1.735   8.084 -0.4374  0.2229  0.4122
 2926SOL    HW1 9972   6.955   1.718   8.164  0.4156  0.4222 -0.0797
 2926SOL    HW2 9973   6.949   1.684   8.016  0.5195  2.2278 -0.5185
 2927SOL     OW 9974   7.157   4.800   7.700 -0.5421 -0.1923 -0.1779
 2927SOL    HW1 9975   7.211   4.824   7.776  0.2262  0.3955 -0.8884
 2927SOL    HW2 9976   7.088   4.866   7.699 -0.3158  0.0483 -0.2205
 2928SOL     OW 9977   4.996   5.499   3.598  0.6979 -0.1844 -0.0495
 2928SOL    HW1 9978   4.946   5.561   3.546  1.4132 -0.6817 -1.4055
 2928SOL    HW2 9979   4.942   5.420   3.600  0.0217  0.2836  1.2331
 2929SOL     OW 9980   4.286   5.599   7.868 -0.4563 -0.4172 -0.1411
 2929SOL    HW1 9981   4.258   5.675   7.919  0.1639 -1.0765  1.2409
 2929SOL    HW2 9982   4.373   5.578   7.902  0.8230  0.2554 -2.8275
 2930SOL     OW 9983   6.106   8.591   1.617  0.2521 -0.0488  0.0452
 2930SOL    HW1 9984   6.106   8.584   1.521  1.0045 -0.5795  0.0685
 2930SOL    HW2 9985   6.040   8.527   1.645  1.6669 -1.6302 -0.0545
 2931SOL     OW 9986   1.347   6.254   4.915  0.0925  0.1984 -0.2065
 2931SOL    HW1 9987   1.417   6.198   4.947  1.0089  1.2825 -0.2578
 2931SOL    HW2 9988   1.326   6.219   4.828 -1.3711 -1.8183  0.8803
 2932SOL     OW 9989   8.318   6.421   1.511  0.3381  0.2669  0.1124
 2932SOL    HW1 9990   8.314   6.426   1.416 -0.0474  1.4811  0.1878
 2932SOL    HW2 9991   8.397   6.469   1.534 -1.1079  2.5623  0.5667
 2933SOL     OW 9992   8.118   7.996   3.627 -0.0164 -0.0048 -0.2576
 2933SOL    HW1 9993   8.109   7.902   3.612 -0.9630  0.3342 -2.0860
 2933SOL    HW2 9994   8.192   8.022   3.571  1.5567  0.0615  1.7397
 2934SOL     OW 9995   6.046   5.984   3.034  0.2656 -0.3063  0.2967
 2934SOL    HW1 9996   5.974   6.046   3.032 -0.1830 -0.8309 -0.9093
 2934SOL    HW2 9997   6.111   6.024   3.091 -0.1136  1.1535 -0.2509
 2935SOL     OW 9998   2.281   3.042   1.277 -0.5154 -0.1712 -0.0199
 2935SOL    HW1 9999   2.190   3.062   1.256 -0.6576  0.8406  1.4253
 2935SOL    HW210000   2.332   3.100   1.220 -0.7471 -0.9204 -1.0145
 2936SOL     OW10001   6.422   5.098   7.027 -0.0369 -0.1606 -0.3338
 2936SOL    HW110002   6.334   5.090   7.066  0.3162 -2.3838  0.1522
 2936SOL    HW210003   6.479   5.053   7.089  1.6305  2.0003 -0.2162
 2937SOL     OW10004   2.690   8.304   6.276 -0.3835 -0.2624 -0.1434
 2937SOL    HW110005   2.679   8.360   6.352 -0.1252 -0.0672 -0.2453
 2937SOL    HW210006   2.784   8.286   6.273 -0.5131 -0.9958  0.0949
 2938SOL     OW10007   3.723   2.479   4.083 -0.0364  0.2590  0.5558
 2938SOL    HW110008   3.692   2.408   4.027  0.3041 -0.3888  1.1775
 2938SOL    HW210009   3.694   2.559   4.038 -0.0437 -0.2510 -0.3751
 2939SOL     OW10010   8.370   1.360   2.698  0.1700 -0.1007 -0.3035
 2939SOL    HW110011   8.336   1.403   2.620  1.3339 -0.0383 -0.8015
 2939SOL    HW210012   8.465   1.367   2.689  0.3184  0.7698  1.6055
 2940SOL     OW10013   1.072   1.701   7.662 -0.4704 -0.2210  0.1035
 2940SOL    HW110014   1.112   1.778   7.702 -1.9407 -0.3248  1.9037
 2940SOL    HW210015   1.131   1.677   7.590 -0.8192  3.6283 -1.7239
 2941SOL     OW10016   4.620   4.422   5.508  0.6045  0.0203  0.0406
 2941SOL    HW110017   4.563   4.491   5.473  0.4266  0.9632  2.0308
 2941SOL    HW210018   4.643   4.369   5.432 -0.9972  1.0153 -1.2139
 2942SOL     OW10019   3.186   0.308   3.555  0.2493 -0.5543  0.9519
 2942SOL    HW110020   3.130   0.243   3.597 -0.3078  0.1624  1.3358
 2942SOL    HW210021   3.218   0.362   3.626  2.1798 -1.4752  0.8562
 2943SOL     OW10022   0.480   3.028   1.152  0.0461 -0.5014  0.5971
 2943SOL    HW110023   0.428   2.954   1.120  1.2351 -0.6500 -1.1292
 2943SOL    HW210024   0.456   3.100   1.094  0.8037 -0.2232  0.6302
 2944SOL     OW10025   1.214   4.508   5.298  0.0148 -0.8220 -0.1751
 2944SOL    HW110026   1.243   4.420   5.321  3.6065  0.4174  0.7315
 2944SOL    HW210027   1.156   4.535   5.369  0.2767 -1.8317  0.4279
 2945SOL     OW10028   7.678   4.304   7.758  0.2095  0.2983  0.3310
 2945SOL    HW110029   7.666   4.398   7.747 -0.1347  0.2771  0.5230
 2945SOL    HW210030   7.736   4.295   7.833  0.4806  0.3624  0.1339
 2946SOL     OW10031   4.306   1.694   6.272  0.2287  0.1874  0.4307
 2946SOL    HW110032   4.322   1.732   6.359 -1.6187 -0.9422  1.3303
 2946SOL    HW210033   4.297   1.600   6.288 -0.8061  0.0347 -0.8815
 2947SOL     OW10034   7.471   6.072   1.250 -0.2761  0.1580  0.2651
 2947SOL    HW110035   7.423   6.129   1.311  0.6743  0.6031  0.6286
 2947SOL    HW210036   7.519   6.012   1.307 -0.2470 -0.1489 -0.0822
 2948SOL     OW10037   1.381   6.590   2.491  0.5437 -0.4384 -0.5883
 2948SOL    HW110038   1.468   6.555   2.509  1.2035  1.5342  0.3922
 2948SOL    HW210039   1.336   6.586   2.575  0.1881 -0.1456 -0.7648
 2949SOL     OW10040   3.325   1.045   8.560  0.5836  0.0284 -0.3344
 2949SOL    HW110041   3.391   1.095   8.513  0.9073  0.6163  0.7122
 2949SOL    HW210042   3.243   1.093   8.546  0.8996  0.9129  0.7018
 2950SOL     OW10043   5.636   6.868   0.309  0.5833 -0.4218 -0.1395
 2950SOL    HW110044   5.583   6.899   0.383 -0.3252  0.7820 -1.2460
 2950SOL    HW210045   5.685   6.794   0.344  1.1687  0.8948  2.0383
 2951SOL     OW10046   4.009   7.918   4.754 -0.4106  0.1504 -0.3523
 2951SOL    HW110047   4.082   7.980   4.750 -0.1073 -0.0906  0.9662
 2951SOL    HW210048   3.935   7.971   4.783 -0.1627 -0.0674  0.7265
 2952SOL     OW10049   3.867   7.394   6.511 -0.4730 -0.3222 -0.0449
 2952SOL    HW110050   3.940   7.360   6.458  0.0261  0.2464  0.2759
 2952SOL    HW210051   3.909   7.438   6.585 -1.0965  1.3004 -0.6276
 2953SOL     OW10052   0.752   7.221   3.605  0.3726 -0.1304  0.0183
 2953SOL    HW110053   0.665   7.207   3.643  0.0734 -1.1036 -1.0105
 2953SOL    HW210054   0.743   7.197   3.513  2.4423 -3.2534  0.4777
 2954SOL     OW10055   6.365   2.745   7.514 -0.3859 -0.2053 -0.1068
 2954SOL    HW110056   6.421   2.750   7.592  0.4139  0.9812 -0.7126
 2954SOL    HW210057   6.355   2.836   7.487 -4.6450 -0.0050  1.3169
 2955SOL     OW10058   4.334   1.943   5.504  0.3250  0.1859 -0.3018
 2955SOL    HW110059   4.377   1.953   5.419 -0.8584  1.5216 -0.7984
 2955SOL    HW210060   4.254   1.996   5.496 -0.8953 -1.3639  0.9125
 2956SOL     OW10061   0.674   7.197   2.843  0.1040 -0.0904 -0.3989
 2956SOL    HW110062   0.604   7.133   2.856 -0.0614  0.0921 -0.3932
 2956SOL    HW210063   0.731   7.156   2.776  1.8878 -1.7919  1.9833
 2957SOL     OW10064   5.971   8.455   3.727 -0.0167 -0.2552  0.4827
 2957SOL    HW110065   5.880   8.432   3.747  0.2239 -1.8238 -0.1258
 2957SOL    HW210066   5.986   8.537   3.774 -1.7155 -0.0164  0.6660
 2958SOL     OW10067   3.726   7.260   5.771 -0.2545  0.3069  0.2316
 2958SOL    HW110068   3.750   7.257   5.863  0.1925  0.5509  0.1295
 2958SOL    HW210069   3.632   7.247   5.770 -0.1947 -0.2200  0.6829
 2959SOL     OW10070   5.651   2.886   0.978  0.2617 -0.2461  0.4600
 2959SOL    HW110071   5.579   2.866   0.918 -0.1780 -1.5513  1.3714
 2959SOL    HW210072   5.729   2.851   0.934  0.0631 -0.4688  0.2805
 2960SOL     OW10073   1.624   5.942   3.398  0.5171 -0.1177  0.2794
 2960SOL    HW110074   1.717   5.965   3.402  0.2753  0.7595  1.6017
 2960SOL    HW210075   1.581   6.021   3.366 -0.0113  0.3417  2.0135
 2961SOL     OW10076   7.751   1.264   3.942 -0.6253 -0.2565  0.3294
 2961SOL    HW110077   7.695   1.341   3.933 -2.3063 -1.4984 -0.0914
 2961SOL    HW210078   7.796   1.257   3.857 -2.2331 -1.0495 -0.4940
 2962SOL     OW10079   7.901   3.505   8.203  0.1317 -0.1765 -0.4318
 2962SOL    HW110080   7.958   3.431   8.183  1.6902  1.1190 -1.0215
 2962SOL    HW210081   7.825   3.492   8.146 -0.8638 -2.5978  1.2684
 2963SOL     OW10082   2.089   4.633   3.267  0.1128  0.1838 -0.3207
 2963SOL    HW110083   2.067   4.712   3.217  0.1779 -0.2450 -1.0389
 2963SOL    HW210084   2.141   4.580   3.206 -0.5394 -0.7329 -0.0954
 2964SOL     OW10085   7.177   2.705   3.321 -0.6021 -0.2806 -0.8215
 2964SOL    HW110086   7.189   2.611   3.332  2.8223  0.1510  0.4003
 2964SOL    HW210087   7.092   2.714   3.278 -0.8377 -3.9197 -1.4034
 2965SOL     OW10088   5.443   2.286   0.924  0.3833  0.3339 -0.0548
 2965SOL    HW110089   5.436   2.273   1.018  2.1016 -0.5221 -0.0044
 2965SOL    HW210090   5.446   2.381   0.913 -0.4989  0.4563  0.6749
 2966SOL     OW10091   0.083   0.577   3.019  0.2440  0.2197 -0.5593
 2966SOL    HW110092   0.109   0.488   3.041  1.0485  0.8887  1.4851
 2966SOL    HW210093   0.058   0.573   2.927 -0.7957 -2.3295 -0.2386
 2967SOL     OW10094   1.366   6.688   4.026  0.3158 -0.3656 -0.9707
 2967SOL    HW110095   1.416   6.762   3.991  0.9039 -0.8895 -1.2473
 2967SOL    HW210096   1.277   6.704   3.998  0.6973 -0.5354 -2.3179
 2968SOL     OW10097   2.641   3.884   0.157  0.1953 -0.4796 -0.1681
 2968SOL    HW110098   2.601   3.962   0.195 -2.4458 -1.8383  0.0725
 2968SOL    HW210099   2.681   3.838   0.231 -0.1179 -0.4184  0.0385
 2969SOL     OW10100   0.492   2.738   3.038  0.5669 -0.5091 -0.3891
 2969SOL    HW110101   0.525   2.648   3.034 -0.0346 -0.6912 -1.5639
 2969SOL    HW210102   0.407   2.734   2.994 -0.2210  0.3133  0.9817
 2970SOL     OW10103   3.241   0.103   4.323 -0.6903  0.0895  0.1496
 2970SOL    HW110104   3.149   0.080   4.336 -0.7760  0.8950  1.1064
 2970SOL    HW210105   3.248   0.123   4.229 -1.3894 -0.3634 -0.0035
 2971SOL     OW10106   6.431   4.620   8.067  0.0550 -0.2441  0.0433
 2971SOL    HW110107   6.508   4.675   8.084  0.7743 -0.8767 -1.0479
 2971SOL    HW210108   6.395   4.602   8.154  0.1549  1.4341  0.4585
 2972SOL     OW10109   1.525   5.504   4.749  0.3961 -0.2235  0.4217
 2972SOL    HW110110   1.509   5.546   4.665 -1.0003  1.3948  1.4192
 2972SOL    HW210111   1.621   5.504   4.758  0.5083  2.3506  0.1043
 2973SOL     OW10112   4.043   6.034   5.137  0.5442  0.1208  0.2352
 2973SOL    HW110113   3.988   6.085   5.076 -0.0364  0.1120  0.7458
 2973SOL    HW210114   4.015   6.063   5.224  0.7774 -0.4838  0.5143
 2974SOL     OW10115   0.599   7.023   5.822  0.3453  0.1588 -0.0266
 2974SOL    HW110116   0.511   7.014   5.785  0.5974 -1.6982 -0.2868
 2974SOL    HW210117   0.652   7.058   5.751  0.0711  0.0812 -0.2724
 2975SOL     OW10118   4.828   8.385   5.401  0.4593  0.1315  0.2268
 2975SOL    HW110119   4.749   8.331   5.411 -0.4869  1.0635 -1.7071
 2975SOL    HW210120   4.805   8.469   5.439  0.9248  0.0839  0.6269
 2976SOL     OW10121   8.262   6.097   3.366 -0.1813 -0.1199 -0.1885
 2976SOL    HW110122   8.345   6.108   3.412 -1.1707 -2.0628  2.2264
 2976SOL    HW210123   8.196   6.091   3.435 -2.1216 -0.4478 -1.9624
 2977SOL     OW10124   4.963   7.305   2.333  0.5353  0.5100 -0.2673
 2977SOL    HW110125   4.952   7.235   2.397  1.4571  0.7761  0.1945
 2977SOL    HW210126   5.047   7.286   2.291  0.8042  1.3493 -0.1186
 2978SOL     OW10127   2.921   7.446   3.124  0.2278  0.1439  0.4387
 2978SOL    HW110128   2.940   7.540   3.128  3.0635 -0.3761  1.8893
 2978SOL    HW210129   2.828   7.440   3.147  0.4549  2.4707  2.4118
 2979SOL     OW10130   3.249   5.413   5.474  0.0167 -0.2874  0.2161
 2979SOL    HW110131   3.297   5.368   5.405  3.8443  2.1207  0.9959
 2979SOL    HW210132   3.242   5.349   5.544  1.9949 -0.8611 -0.0433
 2980SOL     OW10133   4.071   3.695   6.598 -0.3002 -0.0809  0.5905
 2980SOL    HW110134   4.006   3.658   6.537 -0.9158 -0.3495  1.3919
 2980SOL    HW210135   4.025   3.701   6.681  0.6139  0.0299  1.1003
 2981SOL     OW10136   7.170   1.697   3.223  0.0295 -1.0764 -0.0908
 2981SOL    HW110137   7.189   1.782   3.260 -3.0734 -0.5643  0.5817
 2981SOL    HW210138   7.244   1.642   3.248  1.6286  1.1426  0.2736
 2982SOL     OW10139   3.996   3.317   4.127  0.3521  0.3610  0.6170
 2982SOL    HW110140   4.089   3.336   4.136  0.2030  1.4202  0.0670
 2982SOL    HW210141   3.979   3.248   4.192  1.5162  0.1258  0.6835
 2983SOL     OW10142   3.482   2.838   8.021  0.4242  0.6172  0.0805
 2983SOL    HW110143   3.528   2.814   7.940  1.0269  0.2928  0.5123
 2983SOL    HW210144   3.533   2.797   8.090 -0.9457 -0.4010  0.5268
 2984SOL     OW10145   6.889   6.875   7.140  0.4050 -0.3779  0.2890
 2984SOL    HW110146   6.907   6.793   7.186 -0.0495 -0.9575 -0.5407
 2984SOL    HW210147   6.976   6.909   7.117  0.5954 -0.6371  0.6212
 2985SOL     OW10148   8.426   7.259   0.756 -0.2583 -0.1069 -0.4309
 2985SOL    HW110149   8.493   7.192   0.760 -0.7657 -0.8473 -2.6120
 2985SOL    HW210150   8.346   7.213   0.729 -0.4510  1.3703 -2.7696
 2986SOL     OW10151   4.259   6.006   5.808  0.1330 -0.2829  0.6120
 2986SOL    HW110152   4.309   5.931   5.777 -1.6912 -1.6506  0.8146
 2986SOL    HW210153   4.231   5.981   5.896  0.0997  0.9633  0.9769
 2987SOL     OW10154   7.949   1.321   2.752  0.6066  0.0147 -0.0130
 2987SOL    HW110155   8.005   1.251   2.717  0.3237 -0.4826  0.5067
 2987SOL    HW210156   8.010   1.385   2.789  0.8522 -0.3491  0.2230
 2988SOL     OW10157   2.352   3.941   0.327 -1.2792  0.4316 -0.4321
 2988SOL    HW110158   2.291   3.963   0.396 -1.3730 -2.1902  0.4162
 2988SOL    HW210159   2.438   3.947   0.368 -1.2316  0.4152 -0.5291
 2989SOL     OW10160   1.606   2.286   0.289  0.5128 -0.1615  0.1443
 2989SOL    HW110161   1.615   2.221   0.359  0.6858 -0.2411  0.0494
 2989SOL    HW210162   1.552   2.355   0.327  0.6370 -0.1866  0.3673
 2990SOL     OW10163   3.811   4.324   4.669  0.2602  0.2119 -0.4910
 2990SOL    HW110164   3.844   4.394   4.725  0.9377 -0.1787 -0.3881
 2990SOL    HW210165   3.743   4.282   4.721  2.3911 -1.5803  1.0167
 2991SOL     OW10166   2.801   1.194   6.064  0.6124 -0.2804  0.4010
 2991SOL    HW110167   2.808   1.276   6.112  0.7869  0.3561 -0.6625
 2991SOL    HW210168   2.843   1.129   6.120  0.9375  0.4598  1.0322
 2992SOL     OW10169   2.026   5.956   2.596 -0.0183 -0.2582 -0.4490
 2992SOL    HW110170   1.944   5.914   2.623  0.9756 -0.9019  1.8263
 2992SOL    HW210171   2.008   6.050   2.599 -0.5250 -0.3790  0.5897
 2993SOL     OW10172   2.526   2.663   6.624  0.1166 -0.1711 -0.7020
 2993SOL    HW110173   2.491   2.723   6.689  0.0779 -0.8555 -0.0684
 2993SOL    HW210174   2.615   2.644   6.655  0.7365  0.8158 -1.7822
 2994SOL     OW10175   0.696   6.445   5.563 -0.2585  0.0078 -0.1721
 2994SOL    HW110176   0.747   6.369   5.590 -0.0987  0.0735 -0.2884
 2994SOL    HW210177   0.753   6.520   5.579  0.2003 -0.0216 -1.5469
 2995SOL     OW10178   6.149   6.568   8.544 -0.6308 -0.2915  0.0409
 2995SOL    HW110179   6.179   6.658   8.533  0.9514 -0.7423  0.5065
 2995SOL    HW210180   6.055   6.572   8.524 -0.6613  1.5091  0.3754
 2996SOL     OW10181   1.852   1.046   8.149 -0.7646 -0.2107 -0.4987
 2996SOL    HW110182   1.947   1.051   8.155 -0.7881  0.8772 -0.8949
 2996SOL    HW210183   1.833   0.952   8.152  0.3691 -0.4779 -1.2364
 2997SOL     OW10184   0.229   5.034   2.119 -0.1854 -0.0762 -0.1491
 2997SOL    HW110185   0.294   5.057   2.053  1.0447 -0.1890  0.9815
 2997SOL    HW210186   0.279   5.024   2.200 -1.4827 -1.1358  0.5653
 2998SOL     OW10187   3.668   1.804   6.304 -0.1632 -0.3005  0.5465
 2998SOL    HW110188   3.585   1.796   6.352  0.1952  0.0758  1.2399
 2998SOL    HW210189   3.734   1.768   6.364  0.1549 -0.7642 -0.0752
 2999SOL     OW10190   4.091   4.978   5.354 -0.4400 -0.1100  0.7081
 2999SOL    HW110191   4.039   4.926   5.292  1.6884 -1.8144  0.2087
 2999SOL    HW210192   4.069   4.942   5.440 -0.6844 -0.2829  0.5757
 3000SOL     OW10193   2.825   6.671   2.045 -0.0619  0.2255 -0.4824
 3000SOL    HW110194   2.889   6.733   2.011  1.4867 -0.1803  1.4914
 3000SOL    HW210195   2.856   6.586   2.014 -1.4474  0.2749 -2.1030
 3001SOL     OW10196   6.584   0.996   7.905  0.7287  0.3249  0.3491
 3001SOL    HW110197   6.580   1.091   7.908 -1.1136  0.2435  1.8886
 3001SOL    HW210198   6.509   0.970   7.851  1.7954 -0.2728 -0.9297
 3002SOL     OW10199   1.378   5.980   6.182  0.1832  0.4284 -0.1937
 3002SOL    HW110200   1.314   5.986   6.253  0.7207  0.5354  0.2966
 3002SOL    HW210201   1.345   6.039   6.114 -0.1490  0.6121  0.1239
 3003SOL     OW10202   2.066   2.229   4.747 -0.3817  0.0409  0.2796
 3003SOL    HW110203   1.974   2.253   4.749 -0.4112  0.1446 -1.1745
 3003SOL    HW210204   2.066   2.136   4.723 -0.0970  0.5345 -1.8321
 3004SOL     OW10205   2.267   5.636   5.497 -0.4927  0.6244  0.7633
 3004SOL    HW110206   2.334   5.616   5.562 -0.4632 -0.7907  0.3489
 3004SOL    HW210207   2.191   5.663   5.549  0.2374  1.7761  1.2566
 3005SOL     OW10208   7.459   7.380   4.689 -0.0902  0.6343 -0.3750
 3005SOL    HW110209   7.368   7.372   4.718  1.2354 -1.4274  3.9996
 3005SOL    HW210210   7.481   7.472   4.704 -1.1059  0.8786 -0.3233
 3006SOL     OW10211   7.314   4.275   5.627  0.1626 -0.0959 -0.1955
 3006SOL    HW110212   7.337   4.337   5.557  1.0408 -1.0914 -0.8125
 3006SOL    HW210213   7.226   4.302   5.654 -0.6145 -0.2749 -2.3497
 3007SOL     OW10214   3.730   6.591   7.629  0.2272 -0.2063 -0.7600
 3007SOL    HW110215   3.645   6.576   7.670  0.2425 -0.5676 -0.8576
 3007SOL    HW210216   3.713   6.655   7.560  0.5742  2.1286  1.1854
 3008SOL     OW10217   7.346   0.846   6.184  0.0479  0.3103  0.5387
 3008SOL    HW110218   7.274   0.784   6.197 -0.7627  0.8362 -1.1459
 3008SOL    HW210219   7.406   0.802   6.125  1.1546 -0.1182  1.9232
 3009SOL     OW10220   2.492   7.262   1.199  0.2543 -0.4735  0.3412
 3009SOL    HW110221   2.466   7.200   1.132 -1.3895  0.8146 -0.2844
 3009SOL    HW210222   2.534   7.334   1.151 -0.0936  0.0290  0.7688
 3010SOL     OW10223   5.255   5.886   3.379  0.2020  0.7553  0.0244
 3010SOL    HW110224   5.205   5.805   3.385 -0.9706  1.5297  1.1783
 3010SOL    HW210225   5.341   5.864   3.415 -1.0513  0.7205  3.3525
 3011SOL     OW10226   7.421   2.881   1.965  0.0568 -0.0901 -1.0323
 3011SOL    HW110227   7.488   2.828   1.921  0.7449 -0.2430  0.1589
 3011SOL    HW210228   7.443   2.874   2.058 -2.0393 -0.7343 -0.5479
 3012SOL     OW10229   2.477   1.754   5.122 -0.5339 -0.2377  0.1326
 3012SOL    HW110230   2.413   1.691   5.156 -0.3426 -1.6614 -1.9402
 3012SOL    HW210231   2.558   1.732   5.167  0.0083 -2.8931 -1.8873
 3013SOL     OW10232   2.215   7.598   1.052 -0.0456 -0.2212  0.1429
 3013SOL    HW110233   2.310   7.594   1.050  0.0811  0.8502  1.8040
 3013SOL    HW210234   2.195   7.688   1.079 -1.5097 -0.5083  0.1165
 3014SOL     OW10235   2.322   1.056   3.092 -0.0040  0.1742  0.2914
 3014SOL    HW110236   2.294   1.033   3.181  1.3554 -1.0300  0.4552
 3014SOL    HW210237   2.266   1.129   3.066 -1.2278 -0.2429  1.6819
 3015SOL     OW10238   6.720   0.064   3.390 -0.4654  0.1159 -0.1197
 3015SOL    HW110239   6.662  -0.009   3.370 -1.0813  0.4083  0.5169
 3015SOL    HW210240   6.660   0.134   3.419  0.2808 -0.0488  2.0014
 3016SOL     OW10241   4.254   7.827   6.278 -0.6720  0.4874  0.2700
 3016SOL    HW110242   4.262   7.787   6.192 -0.1134  3.2733 -1.0911
 3016SOL    HW210243   4.238   7.920   6.260  0.9931  1.4624  3.1410
 3017SOL     OW10244   3.461   1.102   2.667  0.0270 -0.4864 -0.2440
 3017SOL    HW110245   3.513   1.177   2.694 -1.7919  0.6063  0.4371
 3017SOL    HW210246   3.434   1.061   2.749  0.3475 -1.4146 -0.5988
 3018SOL     OW10247   5.642   3.803   6.159 -0.1744 -0.4578 -0.7969
 3018SOL    HW110248   5.593   3.820   6.078  0.9799  0.9613 -1.2370
 3018SOL    HW210249   5.575   3.790   6.225 -1.1796  1.0956 -1.4468
 3019SOL     OW10250   4.836   4.372   5.846 -0.1494 -0.3348  0.1831
 3019SOL    HW110251   4.764   4.326   5.803 -1.1054  0.3849  0.9674
 3019SOL    HW210252   4.874   4.427   5.778 -0.7903 -0.2040 -0.0774
 3020SOL     OW10253   3.524   2.115   6.295 -0.0521  0.2693  0.2024
 3020SOL    HW110254   3.584   2.096   6.223  0.1627 -1.0020  0.6954
 3020SOL    HW210255   3.571   2.089   6.373 -0.6627  0.7234  0.7318
 3021SOL     OW10256   2.501   3.549   2.759  0.2390 -0.3633  0.0976
 3021SOL    HW110257   2.579   3.493   2.756  1.3749  1.1939 -1.2664
 3021SOL    HW210258   2.504   3.589   2.846  0.2904 -1.1835  0.4868
 3022SOL     OW10259   6.893   4.271   3.918  0.5036 -0.2283 -0.1054
 3022SOL    HW110260   6.816   4.301   3.967  1.6224  0.2579  1.4254
 3022SOL    HW210261   6.889   4.319   3.835 -1.1287 -0.6366 -0.2965
 3023SOL     OW10262   6.244   8.432   5.879 -0.1000  0.3235  0.3725
 3023SOL    HW110263   6.274   8.475   5.958  0.6497 -0.2808  0.4301
 3023SOL    HW210264   6.190   8.359   5.910  0.2840  0.0198  0.3443
 3024SOL     OW10265   3.613   5.139   4.913  1.0144 -0.6396 -0.2255
 3024SOL    HW110266   3.530   5.129   4.959  1.1775 -0.9867  0.0006
 3024SOL    HW210267   3.601   5.217   4.858  0.6282 -0.5414 -0.0084
 3025SOL     OW10268   3.058   3.479   0.901 -0.6898 -0.4700 -0.3925
 3025SOL    HW110269   3.004   3.411   0.940  1.2741 -1.6789  0.3648
 3025SOL    HW210270   3.107   3.516   0.974 -1.4917  1.5958 -0.8377
 3026SOL     OW10271   7.450   1.743   8.132  0.1127  0.0237 -0.6454
 3026SOL    HW110272   7.479   1.662   8.090  0.6674  0.1030 -0.4371
 3026SOL    HW210273   7.453   1.724   8.225  1.0661  0.5342 -0.5572
 3027SOL     OW10274   6.164   3.311   6.489 -0.2059 -0.1831  0.1002
 3027SOL    HW110275   6.227   3.288   6.557  0.3494  1.0594  0.0332
 3027SOL    HW210276   6.094   3.357   6.535 -1.1965 -1.7071  0.2017
 3028SOL     OW10277   8.274   8.307   7.532  0.2781 -0.6042  0.4096
 3028SOL    HW110278   8.218   8.343   7.600 -1.5083  0.6445 -1.5813
 3028SOL    HW210279   8.306   8.384   7.484  0.3437 -1.4812 -1.0091
 3029SOL     OW10280   7.239   3.708   7.750 -0.0697 -0.3171  0.4915
 3029SOL    HW110281   7.204   3.664   7.672 -0.0257 -0.7839  0.7295
 3029SOL    HW210282   7.287   3.783   7.715  0.2488 -0.7234  0.0427
 3030SOL     OW10283   1.168   5.027   3.200  0.0336  0.1401  0.2944
 3030SOL    HW110284   1.194   5.082   3.274 -0.4221  0.1475  0.4482
 3030SOL    HW210285   1.128   5.088   3.137 -0.9299 -0.0784  0.6790
 3031SOL     OW10286   6.586   6.726   2.088  0.0388 -0.5998  0.2073
 3031SOL    HW110287   6.534   6.772   2.023  0.0038 -0.6633  0.1896
 3031SOL    HW210288   6.557   6.761   2.172  0.4511 -0.1467  0.1632
 3032SOL     OW10289   3.008   4.254   7.430  0.5147 -0.4032 -0.2268
 3032SOL    HW110290   2.995   4.228   7.521  0.3107  1.3719  0.2765
 3032SOL    HW210291   3.100   4.234   7.413  1.0794  1.0117  0.9897
 3033SOL     OW10292   5.009   6.531   3.088  0.0930  0.1141  0.6213
 3033SOL    HW110293   5.029   6.441   3.063 -2.6444 -0.1378 -1.1635
 3033SOL    HW210294   4.932   6.524   3.144  0.3802  1.2897  1.1851
 3034SOL     OW10295   8.221   4.780   5.906 -0.2990 -0.0401 -0.1218
 3034SOL    HW110296   8.179   4.793   5.991  2.4673 -0.8775  1.4893
 3034SOL    HW210297   8.225   4.867   5.868 -0.4111  0.5842  1.2228
 3035SOL     OW10298   7.032   3.630   7.938  0.1327  0.0031 -0.0635
 3035SOL    HW110299   6.940   3.657   7.943  0.1731  0.2075 -0.3750
 3035SOL    HW210300   7.070   3.686   7.870  0.5244  0.0242  0.1654
 3036SOL     OW10301   5.852   4.200   6.656 -0.9496 -0.0201 -0.4673
 3036SOL    HW110302   5.910   4.129   6.627 -1.5779 -1.3665  1.3706
 3036SOL    HW210303   5.784   4.206   6.589 -0.8509 -1.1253 -0.6751
 3037SOL     OW10304   1.431   1.108   2.241 -0.5972  0.1426  1.0491
 3037SOL    HW110305   1.350   1.058   2.230 -0.3716  0.1690 -1.0331
 3037SOL    HW210306   1.401   1.196   2.265 -1.4001  0.7567 -1.7806
 3038SOL     OW10307   6.239   6.380   0.558 -0.5825  0.3708  0.1106
 3038SOL    HW110308   6.205   6.460   0.598  0.0987  0.8074 -0.1545
 3038SOL    HW210309   6.220   6.311   0.621  2.5747  1.3573  2.4061
 3039SOL     OW10310   4.820   0.007   1.850 -0.5691 -0.2403 -0.3461
 3039SOL    HW110311   4.910   0.035   1.839 -0.7522  0.1996 -0.7288
 3039SOL    HW210312   4.827  -0.084   1.878  0.0865  0.5148  2.2479
 3040SOL     OW10313   2.424   5.462   1.999 -0.1975 -0.2925  0.1051
 3040SOL    HW110314   2.374   5.413   2.065 -0.7453  2.5134  1.9277
 3040SOL    HW210315   2.502   5.409   1.984 -1.5110 -2.5296  0.6346
 3041SOL     OW10316   7.855   5.272   8.435  0.0031  0.1081 -0.1213
 3041SOL    HW110317   7.839   5.300   8.525  1.0054 -1.0717  0.4547
 3041SOL    HW210318   7.890   5.349   8.392 -0.9831  0.8418  0.3344
 3042SOL     OW10319   7.722   8.186   2.634  0.3316 -0.1396 -0.3081
 3042SOL    HW110320   7.727   8.266   2.583  1.9224 -0.3419 -0.5140
 3042SOL    HW210321   7.755   8.118   2.575 -0.9209 -0.9645 -0.1141
 3043SOL     OW10322   6.694   4.215   6.531 -0.5186  0.2049 -0.5277
 3043SOL    HW110323   6.748   4.165   6.593  0.7119  0.8050 -1.0936
 3043SOL    HW210324   6.736   4.301   6.526 -0.9119  0.3379 -1.7808
 3044SOL     OW10325   3.459   2.239   0.451  0.1862 -0.1358 -0.0147
 3044SOL    HW110326   3.549   2.215   0.428  0.1844  0.9765 -1.3553
 3044SOL    HW210327   3.468   2.312   0.512  0.1753 -2.3587  2.8302
 3045SOL     OW10328   0.170   5.214   1.521  0.2204  0.8295  0.1127
 3045SOL    HW110329   0.118   5.212   1.601 -0.7666  1.2417 -0.5008
 3045SOL    HW210330   0.124   5.275   1.464  1.2560  1.0143 -0.5433
 3046SOL     OW10331   0.587   6.366   5.962 -0.1362  0.2851  0.0528
 3046SOL    HW110332   0.523   6.358   6.033 -0.4716 -0.6496 -0.3390
 3046SOL    HW210333   0.533   6.384   5.885  0.1891  0.8094 -0.0558
 3047SOL     OW10334   1.402   8.430   5.610  0.6537 -0.1416  0.1440
 3047SOL    HW110335   1.413   8.475   5.526  0.9095  0.2746  0.3978
 3047SOL    HW210336   1.491   8.420   5.644  0.5634 -0.4554  0.2928
 3048SOL     OW10337   1.329   6.905   8.087  0.1937  0.7708  0.1456
 3048SOL    HW110338   1.381   6.917   8.008 -0.2726  0.0018 -0.2903
 3048SOL    HW210339   1.394   6.889   8.156  0.5900  1.2703 -0.1075
 3049SOL     OW10340   7.620   8.068   0.193  0.0502 -0.1463  0.6464
 3049SOL    HW110341   7.596   7.984   0.231  0.5678  0.4173  2.3451
 3049SOL    HW210342   7.540   8.121   0.198  0.6319  0.6348  3.1299
 3050SOL     OW10343   3.664   4.408   1.445  0.2924 -0.5872 -0.1628
 3050SOL    HW110344   3.574   4.432   1.468  0.3608  0.7816 -1.1827
 3050SOL    HW210345   3.661   4.315   1.427 -0.1936 -1.3591  3.2184
 3051SOL     OW10346   4.661   2.788   5.409 -0.8914 -0.1731  0.4087
 3051SOL    HW110347   4.605   2.866   5.406  0.5991  0.9268 -0.3635
 3051SOL    HW210348   4.699   2.783   5.321  1.8459  0.3787  1.4743
 3052SOL     OW10349   0.667   2.969   1.529  0.4359  0.0334  0.4984
 3052SOL    HW110350   0.682   2.904   1.461  1.6336  0.8043 -0.0001
 3052SOL    HW210351   0.588   2.938   1.575  0.5059 -1.3109 -0.2427
 3053SOL     OW10352   2.235   5.057   2.814  0.5278 -0.4864 -0.3725
 3053SOL    HW110353   2.155   5.015   2.781 -0.1576 -0.5625  1.2849
 3053SOL    HW210354   2.281   4.987   2.860 -0.1429  0.2734  1.5695
 3054SOL     OW10355   1.722   6.250   4.074 -0.2177  0.0366 -0.0536
 3054SOL    HW110356   1.648   6.188   4.073  0.1747 -0.4687 -2.1623
 3054SOL    HW210357   1.742   6.261   4.167 -0.7821 -2.4660  0.4594
 3055SOL     OW10358   5.093   0.967   8.081  0.1787  0.0949  0.3979
 3055SOL    HW110359   5.052   0.903   8.139  1.9156 -0.3877  1.1462
 3055SOL    HW210360   5.071   0.937   7.993 -0.0931 -0.8143  0.7665
 3056SOL     OW10361   1.921   5.233   5.204  0.3666 -0.0500 -0.6424
 3056SOL    HW110362   2.010   5.266   5.218  0.1265 -0.0674  1.1046
 3056SOL    HW210363   1.933   5.138   5.195  0.3565 -0.3925  2.0790
 3057SOL     OW10364   5.202   6.637   0.004 -0.2167 -1.0150  0.5178
 3057SOL    HW110365   5.213   6.575  -0.068 -0.4400 -0.4614 -0.0052
 3057SOL    HW210366   5.291   6.666   0.023 -0.2800  0.0400 -0.6360
 3058SOL     OW10367   5.790   1.314   0.336  0.4384  0.0167 -0.3407
 3058SOL    HW110368   5.852   1.241   0.342  0.4437  0.1012  0.6793
 3058SOL    HW210369   5.787   1.351   0.424 -1.7353 -0.5186 -0.1542
 3059SOL     OW10370   3.206   5.958   3.980 -0.0557 -0.2519 -0.1357
 3059SOL    HW110371   3.250   6.041   3.967  0.0053  0.0737  1.8994
 3059SOL    HW210372   3.125   5.965   3.929 -0.3926  1.3561  0.5639
 3060SOL     OW10373   0.769   4.785   4.435  0.1582  0.3157  0.6692
 3060SOL    HW110374   0.743   4.693   4.426  1.1476  0.0024  0.9217
 3060SOL    HW210375   0.802   4.809   4.349 -0.4439  0.5538  0.4993
 3061SOL     OW10376   0.369   5.302   3.986 -0.4731  0.0756  0.1182
 3061SOL    HW110377   0.442   5.242   3.975 -0.8124 -0.3759  0.3051
 3061SOL    HW210378   0.295   5.246   4.009 -0.5726  0.6394  1.2635
 3062SOL     OW10379   4.374   0.926   7.113  0.0755  0.1474  0.9242
 3062SOL    HW110380   4.340   0.842   7.081  0.1965  0.1908  0.6809
 3062SOL    HW210381   4.431   0.957   7.043 -0.1165  0.5267  0.9323
 3063SOL     OW10382   6.242   4.663   5.302 -0.3919  0.1347 -0.5769
 3063SOL    HW110383   6.241   4.704   5.389  1.5731  1.4184 -1.0891
 3063SOL    HW210384   6.262   4.735   5.242 -2.3082 -0.6074 -2.2293
 3064SOL     OW10385   1.059   5.217   6.475 -0.1561 -0.3552  0.3558
 3064SOL    HW110386   1.124   5.166   6.523 -0.2815 -0.5930  0.2747
 3064SOL    HW210387   1.029   5.284   6.537 -0.1186 -0.4880  0.5159
 3065SOL     OW10388   8.256   8.029   5.892  0.4675  0.4048  0.4992
 3065SOL    HW110389   8.299   7.991   5.815 -1.6792  2.4319 -1.8748
 3065SOL    HW210390   8.293   8.117   5.898 -0.3544  0.7265  0.9593
 3066SOL     OW10391   0.968   7.286   7.598 -0.1414 -0.3336  0.6180
 3066SOL    HW110392   0.908   7.358   7.580  1.5334  0.8176 -0.6008
 3066SOL    HW210393   0.916   7.207   7.584 -1.6874  0.6175  0.8347
 3067SOL     OW10394   2.269   3.594   6.632 -0.0057  0.0477 -0.0547
 3067SOL    HW110395   2.216   3.610   6.554  2.2399  1.5060 -1.3919
 3067SOL    HW210396   2.256   3.672   6.685  0.8377  0.4462 -0.4262
 3068SOL     OW10397   0.129   7.377   5.923 -0.4432  0.1602 -0.5399
 3068SOL    HW110398   0.077   7.348   5.998 -0.1544  0.5178 -0.2002
 3068SOL    HW210399   0.209   7.325   5.927 -0.8929 -0.6235 -1.2478
 3069SOL     OW10400   6.812   8.373   2.997  0.3961  0.0283 -0.1839
 3069SOL    HW110401   6.838   8.321   2.921  2.4494  1.5974 -0.6422
 3069SOL    HW210402   6.745   8.432   2.963  0.9507  0.3867 -0.6752
 3070SOL     OW10403   1.164   8.590   0.005  0.1612 -0.5577 -0.0047
 3070SOL    HW110404   1.076   8.562   0.031 -0.0101 -0.3746 -0.3814
 3070SOL    HW210405   1.150   8.649  -0.070  0.6556 -1.3119 -0.7143
 3071SOL     OW10406   7.281   2.545   1.927 -0.4947  0.1397 -0.1711
 3071SOL    HW110407   7.219   2.606   1.968 -1.2077 -1.4480  1.2492
 3071SOL    HW210408   7.230   2.465   1.914  1.1223 -1.0761  0.6746
 3072SOL     OW10409   5.612   6.310   1.970 -0.2109 -1.0490  0.0944
 3072SOL    HW110410   5.701   6.341   1.952 -0.1841 -2.0922 -1.8618
 3072SOL    HW210411   5.605   6.312   2.066  0.5688  2.6056  0.2055
 3073SOL     OW10412   3.696   1.197   0.402 -0.2305 -0.0195  0.5668
 3073SOL    HW110413   3.780   1.241   0.416 -0.7310  0.7393  1.3093
 3073SOL    HW210414   3.698   1.123   0.462  0.0799 -0.2472  0.2768
 3074SOL     OW10415   7.801   6.612   2.752 -0.6014  0.1632 -0.1691
 3074SOL    HW110416   7.706   6.602   2.746 -0.6729  1.1591 -0.9987
 3074SOL    HW210417   7.826   6.653   2.669  0.5151  0.1957  0.1676
 3075SOL     OW10418   2.207   5.128   2.477  0.1438  0.0625 -0.6645
 3075SOL    HW110419   2.292   5.085   2.468  0.5886  1.2119 -2.5161
 3075SOL    HW210420   2.223   5.198   2.541  0.0890 -0.8481  0.3693
 3076SOL     OW10421   8.470   6.152   6.878 -0.3381 -0.2447 -0.3524
 3076SOL    HW110422   8.411   6.077   6.865 -3.6955  2.2219 -0.7431
 3076SOL    HW210423   8.462   6.173   6.971 -0.6722  0.5439 -0.5549
 3077SOL     OW10424   5.515   3.347   4.572 -0.3846  0.2645  0.0664
 3077SOL    HW110425   5.539   3.420   4.516  0.7729  0.7503  1.1339
 3077SOL    HW210426   5.581   3.347   4.641 -1.0257 -1.0876  0.7302
 3078SOL     OW10427   6.370   8.537   3.513  0.2771  0.0730 -0.8947
 3078SOL    HW110428   6.305   8.466   3.512  2.0624 -1.8612  2.2886
 3078SOL    HW210429   6.451   8.495   3.482  1.6552  0.2071  2.1519
 3079SOL     OW10430   5.240   1.351   2.268  0.1701 -0.1235 -0.2247
 3079SOL    HW110431   5.200   1.353   2.355  0.4173 -0.3158 -0.1026
 3079SOL    HW210432   5.170   1.324   2.209 -0.2558  0.9737 -0.2335
 3080SOL     OW10433   1.687   2.555   5.423  0.2393 -0.3833  0.3267
 3080SOL    HW110434   1.608   2.609   5.421  0.3158 -0.1591  1.8876
 3080SOL    HW210435   1.757   2.613   5.393  0.3733  0.5374  2.2868
 3081SOL     OW10436   1.071   8.231   2.235 -0.8705  0.1824 -0.1343
 3081SOL    HW110437   1.087   8.218   2.329 -0.0657 -2.2637 -0.5451
 3081SOL    HW210438   0.978   8.253   2.230 -1.0278 -0.0581  1.1927
 3082SOL     OW10439   1.246   5.758   0.025  0.3249 -0.2236  0.5389
 3082SOL    HW110440   1.297   5.718   0.095  2.4083 -0.4260 -0.9923
 3082SOL    HW210441   1.296   5.834  -0.001 -0.8375  0.3266 -0.1928
 3083SOL     OW10442   3.396   4.932   3.912 -0.2696 -0.5987  0.1958
 3083SOL    HW110443   3.405   4.867   3.842 -2.3094  0.2932 -0.9767
 3083SOL    HW210444   3.365   5.011   3.868 -0.3797  0.3904  1.9498
 3084SOL     OW10445   2.913   4.149   8.280 -0.2765  0.4686  0.2026
 3084SOL    HW110446   2.986   4.206   8.303 -0.9501  1.1189  0.8022
 3084SOL    HW210447   2.837   4.190   8.323 -0.2877 -2.7534  3.7787
 3085SOL     OW10448   2.084   3.005   1.580  0.2934  0.0740 -0.2627
 3085SOL    HW110449   2.133   3.086   1.591  0.4849 -0.0279 -0.3707
 3085SOL    HW210450   2.025   3.002   1.656 -0.2194  0.6682 -0.6238
 3086SOL     OW10451   6.749   5.056   7.022  0.1131 -0.0797  0.4603
 3086SOL    HW110452   6.719   5.125   7.081 -1.7850 -1.3444  1.0518
 3086SOL    HW210453   6.692   5.064   6.945  0.2484 -0.6435  0.3009
 3087SOL     OW10454   5.776   1.810   1.896  0.5439  0.0130 -0.1214
 3087SOL    HW110455   5.858   1.817   1.846 -0.8329  1.8378 -2.3779
 3087SOL    HW210456   5.720   1.878   1.857 -2.4371 -1.9108  0.5489
 3088SOL     OW10457   3.021   3.494   6.285 -0.4745 -0.2787  0.3151
 3088SOL    HW110458   2.994   3.520   6.373 -1.6917 -1.2411  0.2450
 3088SOL    HW210459   3.080   3.420   6.300 -0.3718 -0.1959  0.3266
 3089SOL     OW10460   5.673   1.284   2.862  0.3476  0.1973 -0.0672
 3089SOL    HW110461   5.614   1.212   2.842 -0.3193  1.2250 -2.0801
 3089SOL    HW210462   5.659   1.301   2.956 -0.1982 -1.6120  0.2062
 3090SOL     OW10463   4.550   6.811   6.547  0.3100 -0.0339  0.1508
 3090SOL    HW110464   4.615   6.741   6.552  1.3605  0.7995 -1.1870
 3090SOL    HW210465   4.471   6.768   6.514  0.7943 -0.6683 -0.2032
 3091SOL     OW10466   3.607   1.987   2.027  0.3290  0.6255 -0.2114
 3091SOL    HW110467   3.573   2.054   2.086 -1.1359 -1.0103  0.9325
 3091SOL    HW210468   3.702   1.999   2.029  0.1082  2.8727 -0.3841
 3092SOL     OW10469   8.577   0.500   5.996  0.1419  0.2502 -0.6638
 3092SOL    HW110470   8.494   0.473   6.036  1.1804 -0.2564  1.2601
 3092SOL    HW210471   8.628   0.419   5.990  0.5961  0.5940 -1.6159
 3093SOL     OW10472   3.495   0.771   1.706 -0.2514 -0.3817 -0.0314
 3093SOL    HW110473   3.478   0.851   1.656  0.0118 -1.0389 -1.1929
 3093SOL    HW210474   3.441   0.781   1.785  0.2494  1.2116  0.1458
 3094SOL     OW10475   6.311   2.905   8.187 -0.4000 -0.1658 -0.1655
 3094SOL    HW110476   6.349   2.821   8.162  1.9811  0.1750  1.8909
 3094SOL    HW210477   6.317   2.958   8.107  1.2028 -0.9464 -0.6075
 3095SOL     OW10478   3.887   6.528   5.778  0.1246 -0.5870 -0.3018
 3095SOL    HW110479   3.808   6.501   5.732 -0.2647  0.0684 -0.0207
 3095SOL    HW210480   3.898   6.621   5.756  1.9666 -1.1324 -2.0139
 3096SOL     OW10481   3.443   1.925   5.519 -0.1713 -0.2363  0.3612
 3096SOL    HW110482   3.538   1.928   5.508 -0.2083  0.3658  0.1420
 3096SOL    HW210483   3.419   2.014   5.543 -0.7997 -0.1158 -0.6651
 3097SOL     OW10484   7.374   8.165   0.162  0.0595 -0.3068 -0.4326
 3097SOL    HW110485   7.343   8.197   0.077  1.2809  1.4916 -0.2425
 3097SOL    HW210486   7.293   8.150   0.212 -0.6233  0.1720 -1.3558
 3098SOL     OW10487   5.784   6.688   0.521 -0.2600 -0.1192  0.3098
 3098SOL    HW110488   5.715   6.623   0.536  0.7321 -1.0597  0.8758
 3098SOL    HW210489   5.812   6.714   0.608  0.9196 -0.6282  0.0925
 3099SOL     OW10490   1.635   0.217   7.345  0.0767  0.0633  0.1594
 3099SOL    HW110491   1.691   0.246   7.273  0.2886 -0.1357  0.2408
 3099SOL    HW210492   1.553   0.191   7.304  0.9060 -2.0293 -0.2740
 3100SOL     OW10493   2.440   2.040   6.445 -0.2037  0.0129 -0.7308
 3100SOL    HW110494   2.523   2.077   6.477 -0.2438 -0.4465 -0.0782
 3100SOL    HW210495   2.375   2.067   6.510  0.2067 -3.4228  1.3282
 3101SOL     OW10496   8.172   1.947   7.816 -0.2540  0.2907 -0.0614
 3101SOL    HW110497   8.128   1.880   7.868 -0.5726 -0.8379 -1.6923
 3101SOL    HW210498   8.264   1.921   7.818 -0.1492  0.6882  0.5394
 3102SOL     OW10499   8.304   2.701   3.783  0.1971 -0.1347 -0.4456
 3102SOL    HW110500   8.252   2.772   3.821 -0.2269 -1.3584  1.4460
 3102SOL    HW210501   8.346   2.739   3.706 -0.9298  1.8095 -0.1506
 3103SOL     OW10502   0.291   0.762   5.590 -0.6038 -0.2483  0.3618
 3103SOL    HW110503   0.365   0.795   5.642 -1.2863  1.7890  0.1597
 3103SOL    HW210504   0.236   0.715   5.653 -0.8345  1.1862  1.2908
 3104SOL     OW10505   7.442   4.233   5.027  0.5275 -0.3598  0.1538
 3104SOL    HW110506   7.440   4.289   4.949  1.7096  0.6882  0.8316
 3104SOL    HW210507   7.351   4.225   5.053  0.3481  1.8961  0.4301
 3105SOL     OW10508   4.209   4.539   4.600 -0.5741 -0.1088  0.6292
 3105SOL    HW110509   4.252   4.582   4.674 -1.4095 -1.0131  1.6736
 3105SOL    HW210510   4.119   4.571   4.603 -0.8273 -0.7921  0.5345
 3106SOL     OW10511   0.130   3.679   8.324  0.4043 -0.3016  0.2423
 3106SOL    HW110512   0.189   3.734   8.374  0.5107 -0.9823  0.8742
 3106SOL    HW210513   0.062   3.652   8.386  0.7310 -1.4374  0.1375
 3107SOL     OW10514   2.155   7.361   0.173  0.2706 -0.4558 -1.1205
 3107SOL    HW110515   2.163   7.447   0.132 -2.0816  0.3172 -0.1307
 3107SOL    HW210516   2.211   7.366   0.251 -0.5608  0.5686 -0.5599
 3108SOL     OW10517   1.873   1.014   0.417 -0.5434 -0.8129  0.0305
 3108SOL    HW110518   1.881   1.028   0.511 -1.0591 -0.3847  0.0215
 3108SOL    HW210519   1.795   0.959   0.407 -1.4058  0.3940 -0.2140
 3109SOL     OW10520   5.966   0.801   2.893 -0.0886  0.1736  0.3426
 3109SOL    HW110521   5.890   0.825   2.839  0.1044 -0.1913 -0.0913
 3109SOL    HW210522   5.928   0.758   2.970 -0.3400  0.3010  0.2900
 3110SOL     OW10523   3.684   3.906   6.580 -0.0517  0.2933 -0.2879
 3110SOL    HW110524   3.780   3.914   6.576  0.0680 -0.2207  1.2502
 3110SOL    HW210525   3.656   3.927   6.491  1.5350 -0.2041 -0.9489
 3111SOL     OW10526   1.372   8.513   4.667 -0.3688 -0.2892  0.0108
 3111SOL    HW110527   1.278   8.522   4.684 -0.1524 -1.0981  1.8512
 3111SOL    HW210528   1.397   8.432   4.710  1.2990  0.2089  0.0610
 3112SOL     OW10529   6.621   6.422   0.244  0.1100  0.1899  0.2910
 3112SOL    HW110530   6.559   6.470   0.299 -1.5523 -3.0371  1.5201
 3112SOL    HW210531   6.704   6.426   0.292 -0.1405  1.2728  0.6615
 3113SOL     OW10532   6.014   1.568   5.864 -0.1610  0.4361  0.1595
 3113SOL    HW110533   6.018   1.490   5.808  0.0073  0.5600 -0.0014
 3113SOL    HW210534   5.921   1.575   5.888 -0.1387  0.0581  0.3605
 3114SOL     OW10535   4.597   8.297   5.781  0.0012 -0.1824 -0.4733
 3114SOL    HW110536   4.540   8.221   5.789  1.1503 -0.9759  0.5814
 3114SOL    HW210537   4.601   8.315   5.687 -1.2757 -0.6316 -0.6306
 3115SOL     OW10538   5.892   7.346   3.700  0.2834 -0.0336  0.3613
 3115SOL    HW110539   5.823   7.295   3.744  0.6585  0.9072  2.1509
 3115SOL    HW210540   5.888   7.432   3.742  2.2725  0.1740  0.2265
 3116SOL     OW10541   1.486   6.944   2.367 -0.2444  0.1927 -0.0622
 3116SOL    HW110542   1.430   6.884   2.319  0.7737 -0.0087 -1.0421
 3116SOL    HW210543   1.547   6.887   2.414 -1.3623  0.3748  1.7073
 3117SOL     OW10544   4.683   1.346   7.108  0.1315 -0.6467 -0.0822
 3117SOL    HW110545   4.612   1.339   7.172 -0.8921  1.3480 -0.8952
 3117SOL    HW210546   4.668   1.273   7.048 -0.0318 -1.4015  0.8470
 3118SOL     OW10547   2.682   2.900   7.610  0.1884 -0.1963 -0.2270
 3118SOL    HW110548   2.608   2.885   7.668 -0.6161  0.2819 -1.0978
 3118SOL    HW210549   2.757   2.911   7.669 -0.5055 -0.2612  0.6894
 3119SOL     OW10550   8.529   1.832   4.605  0.5418  0.1328 -0.1738
 3119SOL    HW110551   8.520   1.739   4.581  1.5983 -0.2086  0.6771
 3119SOL    HW210552   8.569   1.831   4.692 -2.6184  1.3505  1.4463
 3120SOL     OW10553   4.594   1.056   8.594 -0.0555  0.2602 -0.3300
 3120SOL    HW110554   4.503   1.033   8.615  0.4375 -2.1158 -0.5123
 3120SOL    HW210555   4.592   1.151   8.578 -2.4381  0.3089 -0.0756
 3121SOL     OW10556   2.952   0.842   4.330  0.4611  0.6086  0.0428
 3121SOL    HW110557   3.029   0.898   4.316  1.6450 -0.9272  0.1188
 3121SOL    HW210558   2.989   0.756   4.350 -1.2986 -0.1098  0.3386
 3122SOL     OW10559   3.511   0.866   5.278 -0.4658 -0.5030 -0.2821
 3122SOL    HW110560   3.497   0.891   5.186  0.2560  0.6329 -0.1013
 3122SOL    HW210561   3.606   0.858   5.286 -0.4958 -0.1404  0.4891
 3123SOL     OW10562   7.556   4.638   7.504  0.3338  0.1544 -0.0765
 3123SOL    HW110563   7.645   4.601   7.509  0.7687  0.9858 -1.3172
 3123SOL    HW210564   7.507   4.576   7.450  1.2797  1.6873 -2.8532
 3124SOL     OW10565   2.578   4.182   6.787 -0.2858  0.2054 -0.4776
 3124SOL    HW110566   2.628   4.218   6.714  1.5269 -0.5409  0.3163
 3124SOL    HW210567   2.614   4.226   6.865 -1.6445  0.4364  0.0463
 3125SOL     OW10568   6.691   6.186   7.894  0.2252 -0.2211  0.6316
 3125SOL    HW110569   6.708   6.196   7.987 -0.1190 -1.0717  0.7947
 3125SOL    HW210570   6.640   6.105   7.887  0.0320 -0.0367 -0.2683
 3126SOL     OW10571   2.565   6.841   1.981 -0.3936 -0.2279  0.2756
 3126SOL    HW110572   2.645   6.788   1.989 -0.6288 -0.7588 -0.6758
 3126SOL    HW210573   2.558   6.860   1.887 -1.0553  0.3315  0.4308
 3127SOL     OW10574   0.944   2.748   1.607 -0.3985  0.1558 -0.1407
 3127SOL    HW110575   0.967   2.827   1.657 -1.1021  0.5454 -0.4151
 3127SOL    HW210576   0.852   2.733   1.627 -0.9338  0.7947 -1.9086
 3128SOL     OW10577   7.899   6.942   7.229  0.1437 -0.4390 -0.5883
 3128SOL    HW110578   7.900   6.901   7.316 -0.2007  0.3892 -0.1767
 3128SOL    HW210579   7.917   7.034   7.247  0.0785 -0.2663 -1.4043
 3129SOL     OW10580   0.295   0.124   1.780 -0.6182  0.3455 -0.4483
 3129SOL    HW110581   0.243   0.061   1.730 -1.5114  0.9260 -0.2848
 3129SOL    HW210582   0.256   0.209   1.759  0.3994  0.8215 -0.4628
 3130SOL     OW10583   2.596   2.236   2.613  0.1885 -0.2060 -0.7227
 3130SOL    HW110584   2.582   2.308   2.675  0.2258 -2.3193  1.9255
 3130SOL    HW210585   2.544   2.261   2.537 -0.3772  2.2692  0.3457
 3131SOL     OW10586   5.811   8.093   3.253 -0.1724 -0.4496 -0.3244
 3131SOL    HW110587   5.743   8.037   3.215 -0.4418 -0.3681  0.0362
 3131SOL    HW210588   5.821   8.165   3.191 -1.1234  0.0658  0.1004
 3132SOL     OW10589   5.555   1.041   2.818 -0.5235  0.3832 -0.7942
 3132SOL    HW110590   5.639   1.001   2.794 -0.9342 -0.7808 -0.3565
 3132SOL    HW210591   5.497   1.023   2.744 -1.0189 -0.8340 -0.1397
 3133SOL     OW10592   0.709   6.975   0.655  0.4657 -0.5781  0.7366
 3133SOL    HW110593   0.681   6.885   0.667 -0.0925 -0.4212  0.6494
 3133SOL    HW210594   0.802   6.975   0.679  0.5681 -1.2480  0.3714
 3134SOL     OW10595   3.396   2.991   6.829 -0.5425  0.2311 -0.2280
 3134SOL    HW110596   3.381   2.917   6.888  0.8901 -0.7177 -1.0192
 3134SOL    HW210597   3.438   2.953   6.752  1.4128  2.0257 -0.1316
 3135SOL     OW10598   2.579   8.407   0.332  0.4280  0.1887 -0.4933
 3135SOL    HW110599   2.526   8.357   0.394  1.3686 -0.4783 -0.1960
 3135SOL    HW210600   2.577   8.355   0.252  0.3210  0.3537 -0.5965
 3136SOL     OW10601   6.891   2.087   0.668 -0.4631 -0.1947  0.1915
 3136SOL    HW110602   6.835   2.011   0.686  0.6712 -0.8289  1.1556
 3136SOL    HW210603   6.912   2.123   0.754  1.3391 -0.5323 -0.0642
 3137SOL     OW10604   1.006   4.549   3.918 -0.4040 -0.0381 -0.0550
 3137SOL    HW110605   1.037   4.627   3.872  0.6565  0.6004  1.6432
 3137SOL    HW210606   1.082   4.490   3.920 -1.2930 -1.3334 -1.6366
 3138SOL     OW10607   1.329   6.197   5.666 -0.0930  0.0038  1.0667
 3138SOL    HW110608   1.245   6.244   5.672 -1.3298 -2.1936  2.6891
 3138SOL    HW210609   1.395   6.266   5.660 -1.9599  1.8428  0.4298
 3139SOL     OW10610   6.107   2.923   4.671 -0.2193 -0.5735  0.2510
 3139SOL    HW110611   6.112   2.983   4.597 -0.2376 -0.6053  0.2243
 3139SOL    HW210612   6.092   2.837   4.632  1.7082 -0.9137  0.1650
 3140SOL     OW10613   2.346   0.365   5.053 -0.5784 -0.4856  0.0183
 3140SOL    HW110614   2.297   0.299   5.004  1.8198 -3.5812  1.4241
 3140SOL    HW210615   2.438   0.340   5.043  0.2705  1.0679  2.7821
 3141SOL     OW10616   4.692   6.961   8.603 -0.2454  0.2861  0.4390
 3141SOL    HW110617   4.634   7.035   8.586 -3.6276 -1.8938  1.3479
 3141SOL    HW210618   4.703   6.919   8.517 -1.9500 -0.4552  0.5285
 3142SOL     OW10619   2.987   7.207   0.824  0.0952  0.4777  0.7897
 3142SOL    HW110620   3.071   7.194   0.780  0.7154  1.0165  1.7724
 3142SOL    HW210621   3.010   7.238   0.911 -1.1124 -0.1348  1.3579
 3143SOL     OW10622   0.780   6.276   2.717 -0.0826  0.1087 -0.2571
 3143SOL    HW110623   0.802   6.248   2.806  0.6581 -1.1126 -0.7998
 3143SOL    HW210624   0.864   6.279   2.671 -0.5785 -0.4314 -1.2318
 3144SOL     OW10625   1.329   4.483   5.050 -0.8735 -0.6183  0.3841
 3144SOL    HW110626   1.327   4.514   5.141 -0.2135 -1.9913  0.8946
 3144SOL    HW210627   1.337   4.562   4.998 -0.3045  0.1393  1.5786
 3145SOL     OW10628   4.174   5.374   8.179 -0.1413  0.3122  0.6777
 3145SOL    HW110629   4.099   5.333   8.221 -0.9323  0.3687 -0.6197
 3145SOL    HW210630   4.144   5.463   8.158 -0.3233 -0.1824 -1.3323
 3146SOL     OW10631   2.225   5.255   1.916  0.2271  0.4731 -0.2992
 3146SOL    HW110632   2.251   5.298   1.997  0.4222  0.5551 -0.4044
 3146SOL    HW210633   2.301   5.200   1.893  0.5447  1.1579 -0.9188
 3147SOL     OW10634   3.963   7.569   3.859 -0.7377 -0.2857 -0.1324
 3147SOL    HW110635   3.926   7.605   3.939  1.5709  2.1168 -0.0302
 3147SOL    HW210636   3.895   7.582   3.792 -1.4801  0.6178  0.7764
 3148SOL     OW10637   6.067   7.575   0.506 -0.4540 -0.0209 -0.2853
 3148SOL    HW110638   6.135   7.526   0.552 -0.2351  0.8942  0.3856
 3148SOL    HW210639   6.028   7.632   0.573 -0.0410  1.4370 -1.2470
 3149SOL     OW10640   2.160   1.501   0.740 -0.0660 -0.3536  0.7030
 3149SOL    HW110641   2.161   1.574   0.802 -1.2175 -0.2694  0.6515
 3149SOL    HW210642   2.241   1.512   0.690 -0.6138  1.4388  0.1058
 3150SOL     OW10643   5.417   0.009   4.748  0.3013  0.4060  0.3766
 3150SOL    HW110644   5.405   0.038   4.838 -2.5357 -0.6786  0.4632
 3150SOL    HW210645   5.330   0.016   4.709  0.7946 -1.9562 -1.3792
 3151SOL     OW10646   6.213   1.010   4.774 -0.8297 -0.4498  0.1376
 3151SOL    HW110647   6.224   1.052   4.688 -0.9574 -0.3547  0.1667
 3151SOL    HW210648   6.218   1.083   4.836 -4.3467  0.0782  0.0202
 3152SOL     OW10649   5.851   4.013   7.504  0.5069 -0.5051 -0.4119
 3152SOL    HW110650   5.859   4.100   7.466  1.0508 -1.0819 -1.6826
 3152SOL    HW210651   5.908   3.958   7.451  0.5948 -1.5456  0.7023
 3153SOL     OW10652   7.828   1.532   5.155  0.3406  0.1756  0.1920
 3153SOL    HW110653   7.867   1.603   5.104 -0.7757  0.6008 -0.0931
 3153SOL    HW210654   7.806   1.465   5.090  0.6136 -0.0808  0.3584
 3154SOL     OW10655   1.090   4.497   6.386 -0.1365  0.3127  0.0940
 3154SOL    HW110656   1.002   4.529   6.365 -0.6599 -0.4993  1.0029
 3154SOL    HW210657   1.105   4.525   6.477 -1.0062 -2.7673  1.2866
 3155SOL     OW10658   2.664   7.591   1.280  0.2878  0.2380  0.1433
 3155SOL    HW110659   2.673   7.685   1.267  3.9026  0.0091  0.0142
 3155SOL    HW210660   2.632   7.582   1.370 -2.2407  1.5043 -0.5212
 3156SOL     OW10661   7.895   1.269   1.530  0.3105  0.2794 -0.2813
 3156SOL    HW110662   7.883   1.304   1.619 -0.3329  1.5707 -0.8579
 3156SOL    HW210663   7.938   1.185   1.544  0.0928  0.3888  1.2713
 3157SOL     OW10664   0.819   5.501   8.116 -0.2222 -0.4031  0.2147
 3157SOL    HW110665   0.853   5.487   8.204 -1.5084 -4.8434  0.2496
 3157SOL    HW210666   0.734   5.542   8.129 -0.6328 -1.5044  1.1068
 3158SOL     OW10667   0.919   4.280   7.450 -0.1161  0.4293  0.5632
 3158SOL    HW110668   0.896   4.355   7.395  0.7706  0.8983  0.8022
 3158SOL    HW210669   0.979   4.316   7.515 -0.6366 -0.2523  1.4423
 3159SOL     OW10670   4.370   0.341   3.379  0.0610 -0.6866  0.4342
 3159SOL    HW110671   4.368   0.398   3.456  1.3418 -0.8148  0.5812
 3159SOL    HW210672   4.386   0.400   3.306  2.1516 -0.8886  0.6730
 3160SOL     OW10673   0.308   3.356   2.156  1.0059 -0.1584 -0.9582
 3160SOL    HW110674   0.230   3.373   2.104  0.1700  0.5631  0.4691
 3160SOL    HW210675   0.381   3.373   2.096  0.0930 -0.2020 -2.1223
 3161SOL     OW10676   0.926   1.840   3.154  0.2665  0.2678  0.0047
 3161SOL    HW110677   0.909   1.751   3.124 -1.5599  0.3061  0.8021
 3161SOL    HW210678   0.884   1.896   3.088 -0.1603  0.4681  0.4392
 3162SOL     OW10679   5.282   2.386   1.610  0.5194  0.0287 -0.1402
 3162SOL    HW110680   5.230   2.453   1.653 -0.4313 -1.2678  0.7910
 3162SOL    HW210681   5.342   2.355   1.678  0.0683 -0.9534 -0.1780
 3163SOL     OW10682   1.264   3.919   5.150 -0.0994  0.1611 -0.3855
 3163SOL    HW110683   1.265   4.003   5.104 -1.6626 -0.8282 -2.4097
 3163SOL    HW210684   1.323   3.932   5.224  2.0258  2.1151 -2.2508
 3164SOL     OW10685   2.378   1.042   4.411 -0.0816  0.1011 -0.4061
 3164SOL    HW110686   2.393   1.043   4.506 -0.2132  0.4207 -0.3886
 3164SOL    HW210687   2.457   1.082   4.374  0.6699 -1.4108 -0.5342
 3165SOL     OW10688   8.263   5.474   4.162  0.1579  0.4465  0.1025
 3165SOL    HW110689   8.192   5.411   4.149  1.6051 -1.1567 -0.4407
 3165SOL    HW210690   8.238   5.549   4.109 -0.1780 -0.9200 -1.7855
 3166SOL     OW10691   7.282   7.280   2.925  0.1438  0.4903  0.2524
 3166SOL    HW110692   7.277   7.249   3.015 -1.5371 -0.4832 -0.1215
 3166SOL    HW210693   7.284   7.199   2.873 -0.0414  1.0296 -0.6063
 3167SOL     OW10694   5.592   6.788   5.845  0.1656 -0.0049  0.8145
 3167SOL    HW110695   5.531   6.743   5.786  0.2939 -0.5094  1.0644
 3167SOL    HW210696   5.660   6.823   5.787 -0.3631  0.5689  0.5322
 3168SOL     OW10697   6.227   5.786   5.967  0.0914  0.3213 -0.2405
 3168SOL    HW110698   6.262   5.868   6.001 -1.5378  2.1020 -2.5072
 3168SOL    HW210699   6.280   5.768   5.889 -0.2161 -0.2129 -0.3308
 3169SOL     OW10700   8.537   2.381   6.853  0.0796 -0.5373  0.7650
 3169SOL    HW110701   8.516   2.427   6.772 -0.1495 -1.2650  0.4011
 3169SOL    HW210702   8.454   2.342   6.881  0.3805 -1.2065  0.7494
 3170SOL     OW10703   0.276   3.729   4.021 -0.1298 -0.3029  0.0220
 3170SOL    HW110704   0.331   3.719   3.943 -0.3033  2.8671 -0.6572
 3170SOL    HW210705   0.336   3.765   4.087 -0.5968 -0.3709  0.4855
 3171SOL     OW10706   6.200   8.570   0.559 -0.0431 -0.4954  0.6334
 3171SOL    HW110707   6.111   8.605   0.559  0.0797 -0.1779 -0.0788
 3171SOL    HW210708   6.248   8.627   0.500  0.4680 -1.0956  0.4704
 3172SOL     OW10709   6.779   2.678   3.972  0.2467 -0.5801  0.2365
 3172SOL    HW110710   6.768   2.772   3.989 -0.4347 -0.5834 -0.1672
 3172SOL    HW210711   6.692   2.647   3.949  0.9240 -0.7746 -2.3428
 3173SOL     OW10712   0.388   6.231   0.958  0.4245  0.3158 -0.1820
 3173SOL    HW110713   0.466   6.284   0.977 -0.9152  2.2133  0.3023
 3173SOL    HW210714   0.381   6.171   1.033  1.1818  0.4119 -0.0263
 3174SOL     OW10715   3.470   2.987   1.957  0.1462  0.0778 -0.2464
 3174SOL    HW110716   3.437   2.951   1.875 -0.6437  0.5090 -0.1310
 3174SOL    HW210717   3.565   2.970   1.955  0.2224  0.5672 -1.4941
 3175SOL     OW10718   2.497   2.772   4.831  0.0093 -0.5050  0.3971
 3175SOL    HW110719   2.482   2.729   4.747  1.6896  0.5959 -0.5274
 3175SOL    HW210720   2.565   2.837   4.813 -1.3857  1.5356  2.0467
 3176SOL     OW10721   6.487   4.573   0.289 -0.5426  0.4549 -0.0980
 3176SOL    HW110722   6.483   4.668   0.302  1.2371  0.8078 -1.7496
 3176SOL    HW210723   6.432   4.557   0.212 -0.4142  0.2075 -0.1392
 3177SOL     OW10724   3.748   1.359   4.481 -0.0325 -0.0298 -0.2299
 3177SOL    HW110725   3.757   1.280   4.427 -0.4950  0.7040 -1.4325
 3177SOL    HW210726   3.811   1.347   4.552  1.3891 -0.5611 -1.5213
 3178SOL     OW10727   4.224   4.235   8.339 -0.1819  0.6322  0.5167
 3178SOL    HW110728   4.290   4.299   8.311  0.7140 -0.3348  0.3638
 3178SOL    HW210729   4.249   4.154   8.295 -1.3712  0.1910  0.6143
 3179SOL     OW10730   5.728   5.277   4.809 -0.1161 -0.2360 -0.2457
 3179SOL    HW110731   5.661   5.283   4.877  0.5067 -0.6481  0.4119
 3179SOL    HW210732   5.810   5.261   4.856  0.5698  0.9005 -0.9814
 3180SOL     OW10733   5.371   7.358   5.139  0.4494 -1.0682 -0.0379
 3180SOL    HW110734   5.329   7.337   5.055  2.3025  0.2236 -1.3749
 3180SOL    HW210735   5.319   7.429   5.175  0.6347 -0.4231 -0.9912
 3181SOL     OW10736   1.186   5.230   1.362  0.4959  0.6026  0.4026
 3181SOL    HW110737   1.130   5.190   1.429 -0.1599 -1.8680 -1.4483
 3181SOL    HW210738   1.268   5.247   1.407 -0.8843  1.9679  2.5695
 3182SOL     OW10739   5.185   7.402   4.129 -0.6920  0.3986 -0.2280
 3182SOL    HW110740   5.182   7.497   4.123 -0.7162  0.3737 -0.6411
 3182SOL    HW210741   5.126   7.371   4.060  1.8522  0.0432 -2.4010
 3183SOL     OW10742   7.006   4.084   6.299 -0.1777 -0.0781 -0.0602
 3183SOL    HW110743   6.923   4.130   6.285 -0.3572 -0.5866 -0.7070
 3183SOL    HW210744   6.984   4.012   6.358  0.3123  1.2652  1.8217
 3184SOL     OW10745   0.519   7.205   7.482  0.6911 -0.1548  0.7063
 3184SOL    HW110746   0.493   7.244   7.398  1.0317 -2.1463 -0.3992
 3184SOL    HW210747   0.563   7.275   7.529 -1.0543  1.5032 -0.0304
 3185SOL     OW10748   0.788   4.781   5.784 -0.1839 -0.7314 -0.0741
 3185SOL    HW110749   0.721   4.713   5.798  0.9398 -1.8022  0.3234
 3185SOL    HW210750   0.788   4.831   5.865 -1.4332  0.1666 -0.5887
 3186SOL     OW10751   6.657   2.990   1.639 -0.2355 -0.0990 -0.5046
 3186SOL    HW110752   6.703   3.073   1.631 -1.1784  0.4518 -0.3862
 3186SOL    HW210753   6.695   2.934   1.572 -1.3559  1.2816 -2.3863
 3187SOL     OW10754   5.302   3.557   7.525 -0.8479 -0.0042  0.1206
 3187SOL    HW110755   5.384   3.592   7.490 -0.2860 -0.2926  1.1096
 3187SOL    HW210756   5.235   3.584   7.462  0.2121 -1.0945 -1.5350
 3188SOL     OW10757   0.603   4.868   7.593  1.2362 -0.3918  0.4348
 3188SOL    HW110758   0.630   4.776   7.595  0.2150 -0.6894  1.9673
 3188SOL    HW210759   0.600   4.894   7.685  2.7964  1.6064 -0.0169
 3189SOL     OW10760   4.019   0.161   7.138  0.3637  0.0743  0.4368
 3189SOL    HW110761   3.963   0.107   7.193 -0.4055  0.5771  0.1639
 3189SOL    HW210762   3.999   0.251   7.164  0.3908  0.2927 -0.2832
 3190SOL     OW10763   4.752   0.266   0.740  0.4683 -0.0069  0.1836
 3190SOL    HW110764   4.809   0.334   0.704  1.4023 -0.9434 -0.1538
 3190SOL    HW210765   4.812   0.198   0.772 -0.4445 -1.0195 -0.1658
 3191SOL     OW10766   0.350   4.593   3.635  0.3365 -0.3082  0.1647
 3191SOL    HW110767   0.256   4.578   3.629  0.4494 -1.0706  0.1495
 3191SOL    HW210768   0.369   4.590   3.729  0.1373  1.2780  0.2741
 3192SOL     OW10769   1.755   2.080   5.593 -0.1246 -0.2198 -0.1344
 3192SOL    HW110770   1.790   2.066   5.505  2.8405 -1.3649  1.1049
 3192SOL    HW210771   1.751   2.175   5.602  0.7615 -0.0744 -1.0602
 3193SOL     OW10772   6.384   2.257   6.537  0.7039 -0.3339  0.2706
 3193SOL    HW110773   6.335   2.262   6.619  1.6566 -0.9006  0.8995
 3193SOL    HW210774   6.324   2.215   6.475 -0.3762  1.0069  0.3699
 3194SOL     OW10775   4.841   7.701   1.494  0.4510  0.1631 -0.1541
 3194SOL    HW110776   4.909   7.634   1.481  2.4415  2.0178  0.0592
 3194SOL    HW210777   4.790   7.669   1.569  1.1240 -1.2699 -0.2769
 3195SOL     OW10778   6.106   6.078   4.232 -0.0843  0.2020  0.0330
 3195SOL    HW110779   6.138   6.154   4.183 -0.1535 -0.0553 -0.4140
 3195SOL    HW210780   6.066   6.022   4.166 -0.4736  0.0024  0.4344
 3196SOL     OW10781   7.920   3.480   6.311  0.0632  0.3143  0.0295
 3196SOL    HW110782   8.003   3.510   6.273  0.2877 -0.5634 -0.2011
 3196SOL    HW210783   7.945   3.407   6.367 -0.5009  0.3802  0.3705
 3197SOL     OW10784   5.652   5.709   0.794  0.0308 -0.8846  0.1184
 3197SOL    HW110785   5.619   5.797   0.812  1.4693 -0.1267 -0.7478
 3197SOL    HW210786   5.581   5.651   0.820 -1.7347  0.6105 -1.1000
 3198SOL     OW10787   5.074   5.328   1.791  0.0716  0.5176 -0.2719
 3198SOL    HW110788   4.979   5.321   1.779 -0.2878 -1.4673  2.7019
 3198SOL    HW210789   5.088   5.420   1.812 -1.1688  0.8550 -0.7898
 3199SOL     OW10790   6.250   8.581   4.136 -0.1291 -0.9197  0.3606
 3199SOL    HW110791   6.245   8.651   4.070 -1.6547 -0.7839  0.5813
 3199SOL    HW210792   6.260   8.628   4.219 -0.6422 -0.9837  0.4590
 3200SOL     OW10793   5.872   6.029   4.920 -0.7855  0.2916 -0.2368
 3200SOL    HW110794   5.853   6.114   4.961  1.0586 -0.7045  3.1285
 3200SOL    HW210795   5.786   5.990   4.904 -1.6861  1.4223  1.4759
 3201SOL     OW10796   2.235   6.231   7.117 -0.3663 -0.0857 -0.4809
 3201SOL    HW110797   2.220   6.222   7.211  0.6066 -0.3111 -0.3344
 3201SOL    HW210798   2.288   6.310   7.109  1.5100 -1.2859 -0.5885
 3202SOL     OW10799   4.122   5.219   4.593 -0.0172 -0.3673 -0.0065
 3202SOL    HW110800   4.158   5.153   4.653  0.7015 -0.9366 -1.0270
 3202SOL    HW210801   4.048   5.175   4.551 -0.6131  0.0827  0.5550
 3203SOL     OW10802   1.585   3.233   5.836  0.6536  0.1330 -0.3112
 3203SOL    HW110803   1.599   3.192   5.750  1.0911 -0.7241  0.1648
 3203SOL    HW210804   1.652   3.301   5.841  2.2445 -1.4187  0.3475
 3204SOL     OW10805   4.495   6.834   7.539  0.1466 -0.0875 -0.0436
 3204SOL    HW110806   4.498   6.788   7.455  1.8610  0.4862 -0.3414
 3204SOL    HW210807   4.403   6.858   7.550 -0.4092 -1.6766 -0.9148
 3205SOL     OW10808   8.062   1.550   3.371 -0.7439  0.0392 -0.0566
 3205SOL    HW110809   8.151   1.524   3.347  0.1007  1.5197  1.2650
 3205SOL    HW210810   8.017   1.468   3.391  0.6007 -0.6665  0.1603
 3206SOL     OW10811   2.443   5.278   4.102  0.0952 -0.1256  0.5865
 3206SOL    HW110812   2.483   5.221   4.169  0.6411  0.9469  1.1970
 3206SOL    HW210813   2.457   5.231   4.020 -0.3307 -1.3376  1.1648
 3207SOL     OW10814   3.006   2.259   2.099  0.6600  0.0372 -0.4288
 3207SOL    HW110815   2.934   2.198   2.117 -0.0239  0.4754 -1.5305
 3207SOL    HW210816   3.082   2.221   2.143 -0.6201  0.5762  2.4884
 3208SOL     OW10817   5.946   1.132   6.619  0.2772 -0.6372  0.5802
 3208SOL    HW110818   5.975   1.054   6.571 -1.3562  0.5954 -2.7333
 3208SOL    HW210819   6.007   1.200   6.592 -0.0003 -0.1206  1.2322
 3209SOL     OW10820   8.064   1.529   0.612 -0.5317 -0.3071 -0.4919
 3209SOL    HW110821   8.087   1.469   0.541 -0.3600 -1.1822  0.2849
 3209SOL    HW210822   8.044   1.472   0.686  0.7646  0.6064  0.6110
 3210SOL     OW10823   1.053   4.385   6.733 -0.0491  0.3096 -1.0702
 3210SOL    HW110824   1.060   4.291   6.719 -0.9307  0.1037 -0.2592
 3210SOL    HW210825   0.961   4.405   6.716 -0.8273  0.3226  2.3976
 3211SOL     OW10826   2.651   3.433   1.064  0.2859 -0.5573  0.0966
 3211SOL    HW110827   2.617   3.506   1.012 -0.5999 -1.1067 -0.1156
 3211SOL    HW210828   2.675   3.473   1.148 -1.4282 -0.2077  0.4751
 3212SOL     OW10829   3.840   2.724   6.139 -0.0801 -0.0893 -0.0013
 3212SOL    HW110830   3.849   2.630   6.126 -1.1825 -0.1889 -0.1349
 3212SOL    HW210831   3.787   2.732   6.218 -2.0516  0.3715 -1.3202
 3213SOL     OW10832   8.123   7.371   2.607 -0.0367  1.0661  0.3943
 3213SOL    HW110833   8.064   7.357   2.681 -0.0619  0.6454  0.2955
 3213SOL    HW210834   8.086   7.317   2.537  0.8795  0.2086  0.5513
 3214SOL     OW10835   5.531   4.501   5.880  0.4172  0.3546 -0.2615
 3214SOL    HW110836   5.523   4.450   5.800  0.0038 -0.6528  0.3940
 3214SOL    HW210837   5.614   4.471   5.919  0.3442  0.4328 -0.0444
 3215SOL     OW10838   0.320   7.207   1.713  0.1783 -0.3872  0.4894
 3215SOL    HW110839   0.373   7.129   1.699 -2.4820 -2.3854  0.6815
 3215SOL    HW210840   0.258   7.208   1.640 -0.1843  1.2470  0.7788
 3216SOL     OW10841   2.671   4.835   1.528  0.5016  0.1227  0.1869
 3216SOL    HW110842   2.613   4.837   1.452 -0.7857  0.3137  1.1322
 3216SOL    HW210843   2.715   4.919   1.527  0.8957 -0.0864 -0.6383
 3217SOL     OW10844   6.873   8.275   6.145 -0.3830  0.2431 -0.3529
 3217SOL    HW110845   6.838   8.301   6.060 -0.0980 -0.6565 -0.7558
 3217SOL    HW210846   6.944   8.215   6.125  0.6771  1.1816  0.4975
 3218SOL     OW10847   1.279   6.987   2.985 -0.3926  0.5442  0.1239
 3218SOL    HW110848   1.245   7.065   3.028 -0.1230  1.1804 -0.7859
 3218SOL    HW210849   1.346   6.954   3.044  0.5956  1.9046 -0.2031
 3219SOL     OW10850   7.225   2.577   7.826 -0.2868 -0.1439 -0.0107
 3219SOL    HW110851   7.303   2.535   7.863 -0.2091 -0.4348 -0.4997
 3219SOL    HW210852   7.222   2.663   7.868 -0.0114 -0.3396  0.4222
 3220SOL     OW10853   2.427   8.397   2.049  0.2436  0.1172  0.1629
 3220SOL    HW110854   2.415   8.440   1.965  2.1056 -1.0382 -0.7614
 3220SOL    HW210855   2.415   8.303   2.031  1.7763 -0.2618  0.8999
 3221SOL     OW10856   1.395   2.191   0.677  0.3289  0.1475  0.2543
 3221SOL    HW110857   1.486   2.169   0.693 -0.3417 -0.2992  4.8733
 3221SOL    HW210858   1.394   2.286   0.665  1.3669  0.2036  0.5733
 3222SOL     OW10859   6.017   6.114   7.708  0.0321  0.1031  0.3071
 3222SOL    HW110860   6.069   6.060   7.647  0.5224  1.5447 -0.6020
 3222SOL    HW210861   5.945   6.057   7.734  1.6973 -1.7520  1.1166
 3223SOL     OW10862   7.083   6.251   2.361  0.7363  1.1314 -0.2725
 3223SOL    HW110863   7.007   6.307   2.378 -0.8120 -0.9671  0.0892
 3223SOL    HW210864   7.060   6.203   2.281  0.9004 -0.7424  0.7419
 3224SOL     OW10865   4.382   7.497   5.255 -0.2909 -0.5840 -0.3050
 3224SOL    HW110866   4.442   7.426   5.234 -0.7131 -0.7091 -1.1525
 3224SOL    HW210867   4.295   7.459   5.241 -0.5062  0.4376 -1.9651
 3225SOL     OW10868   3.011   7.641   3.423 -0.0218 -0.0050  0.1782
 3225SOL    HW110869   2.981   7.691   3.347  0.1502  0.8512  0.6633
 3225SOL    HW210870   2.933   7.592   3.451 -0.2483  0.1444 -0.1790
 3226SOL     OW10871   4.776   7.630   4.007  0.2102 -0.3106  0.3033
 3226SOL    HW110872   4.695   7.650   3.961  0.6852 -1.5302 -1.1318
 3226SOL    HW210873   4.767   7.538   4.034  0.8279 -0.2540  0.7456
 3227SOL     OW10874   5.354   6.779   6.080 -0.2377 -0.0504 -0.1900
 3227SOL    HW110875   5.421   6.848   6.082  1.2490 -1.4239 -0.0961
 3227SOL    HW210876   5.375   6.723   6.155  0.1743 -1.9768 -1.6541
 3228SOL     OW10877   2.214   1.984   0.953 -0.1476 -0.2691  0.0356
 3228SOL    HW110878   2.159   2.019   1.024 -0.5542 -0.2466 -0.2892
 3228SOL    HW210879   2.302   2.014   0.975 -0.5253  1.1885 -0.3737
 3229SOL     OW10880   6.392   0.337   0.261 -0.1963 -0.8543 -0.1905
 3229SOL    HW110881   6.455   0.344   0.190  1.2351  2.2512  1.1826
 3229SOL    HW210882   6.345   0.420   0.260  0.1535 -0.5253  2.6553
 3230SOL     OW10883   5.264   5.684   4.004  0.3411 -0.2108 -0.7132
 3230SOL    HW110884   5.306   5.636   4.075  0.6020 -0.5592 -1.0969
 3230SOL    HW210885   5.196   5.625   3.972 -0.5532  0.4090  0.0028
 3231SOL     OW10886   0.161   6.086   0.717 -0.0173  0.0438  0.6451
 3231SOL    HW110887   0.165   6.008   0.662  2.1382 -0.6635  1.6732
 3231SOL    HW210888   0.108   6.060   0.793  0.2758 -0.2671  0.7447
 3232SOL     OW10889   4.095   3.712   0.541 -0.1495 -0.6339  0.3675
 3232SOL    HW110890   4.008   3.677   0.522  0.4189 -1.1431 -1.4279
 3232SOL    HW210891   4.153   3.636   0.540  0.7270  0.0082 -1.1493
 3233SOL     OW10892   7.024   1.977   0.329 -0.1473 -0.1434 -0.1478
 3233SOL    HW110893   7.102   1.928   0.305  1.3601  1.7215  0.6898
 3233SOL    HW210894   6.998   1.939   0.414 -0.4905 -1.1044 -0.6652
 3234SOL     OW10895   1.534   5.615   2.450  0.2729 -0.2366 -0.3172
 3234SOL    HW110896   1.511   5.688   2.508 -0.8066 -0.2700 -0.6850
 3234SOL    HW210897   1.473   5.622   2.377  1.0337 -0.7310 -1.0134
 3235SOL     OW10898   5.749   6.921   0.034 -0.6432 -0.0414 -0.0086
 3235SOL    HW110899   5.796   7.004   0.035 -1.4724  0.4359  0.2206
 3235SOL    HW210900   5.712   6.913   0.122 -0.3864 -0.7670  0.0456
 3236SOL     OW10901   5.533   8.587   5.334  0.3271 -0.4452  0.3294
 3236SOL    HW110902   5.463   8.549   5.280  1.2474 -1.5251 -0.1439
 3236SOL    HW210903   5.503   8.573   5.424 -0.8154  0.5896  0.1285
 3237SOL     OW10904   5.705   7.991   0.892  0.1642  0.0165 -0.1590
 3237SOL    HW110905   5.637   8.035   0.943 -1.5655  1.3473 -3.3411
 3237SOL    HW210906   5.763   8.063   0.864  1.5184 -0.7833  0.5083
 3238SOL     OW10907   0.310   0.764   8.097 -0.1657 -0.1347 -0.4379
 3238SOL    HW110908   0.227   0.808   8.079 -0.4433 -0.9013 -1.1070
 3238SOL    HW210909   0.312   0.753   8.192 -0.5239  0.4734 -0.3592
 3239SOL     OW10910   0.723   2.435   0.712  0.3001 -0.3324  0.2874
 3239SOL    HW110911   0.803   2.384   0.717  0.0064 -0.7674  0.6727
 3239SOL    HW210912   0.732   2.488   0.633  0.4263 -1.3083 -0.3628
 3240SOL     OW10913   5.067   8.087   0.255 -0.2728  0.0277 -0.3645
 3240SOL    HW110914   4.974   8.067   0.266 -0.0939 -1.6099 -1.4903
 3240SOL    HW210915   5.085   8.154   0.320 -2.0822 -0.1328  0.3524
 3241SOL     OW10916   2.995   0.454   5.958  0.0606 -0.2396  0.2914
 3241SOL    HW110917   3.051   0.452   6.036  0.3413  1.6712  0.1757
 3241SOL    HW210918   3.039   0.397   5.895 -1.1399 -3.3960  2.0758
 3242SOL     OW10919   4.746   0.911   4.001 -0.2907 -0.0314  0.1463
 3242SOL    HW110920   4.662   0.897   4.044 -0.4774  1.2377  0.2343
 3242SOL    HW210921   4.748   1.005   3.983  0.5007 -0.2744 -1.1256
 3243SOL     OW10922   0.770   3.933   6.692  0.1414  0.3510  0.2046
 3243SOL    HW110923   0.763   3.855   6.637 -0.6761  1.3339 -1.1378
 3243SOL    HW210924   0.734   3.905   6.777 -1.7944 -0.2813 -0.7634
 3244SOL     OW10925   4.596   6.590   4.167 -0.2959  0.8122  0.6647
 3244SOL    HW110926   4.561   6.520   4.221  0.0849  0.4649  0.4673
 3244SOL    HW210927   4.615   6.661   4.228  2.6218 -0.4832  1.4582
 3245SOL     OW10928   5.521   2.329   6.976 -0.6932 -0.4361 -0.2585
 3245SOL    HW110929   5.559   2.307   7.061 -0.4358  1.1027  0.0545
 3245SOL    HW210930   5.426   2.327   6.991 -0.6445  0.0862  0.1399
 3246SOL     OW10931   7.347   0.441   7.519 -0.1670 -0.2061 -0.2774
 3246SOL    HW110932   7.434   0.421   7.553 -1.0431 -1.2303  1.5533
 3246SOL    HW210933   7.321   0.522   7.562 -0.6064 -0.6008  0.2302
 3247SOL     OW10934   6.048   4.917   7.591  0.2187 -0.4955  0.0353
 3247SOL    HW110935   6.048   5.012   7.608 -1.6257 -0.3158 -0.7522
 3247SOL    HW210936   6.135   4.899   7.554  1.5957  0.3798  2.6158
 3248SOL     OW10937   0.572   3.505   1.982 -0.0083 -0.9092  0.0640
 3248SOL    HW110938   0.634   3.524   2.053 -0.7795 -2.6424  1.2776
 3248SOL    HW210939   0.530   3.590   1.965  2.2079  0.1717 -0.3794
 3249SOL     OW10940   3.555   3.659   2.990  0.2835 -0.1836 -0.3196
 3249SOL    HW110941   3.513   3.579   2.958 -1.2635  0.0795  0.9667
 3249SOL    HW210942   3.630   3.628   3.042 -1.0982 -0.8918  1.3241
 3250SOL     OW10943   5.156   8.256   0.483 -0.8458  0.6714  0.0093
 3250SOL    HW110944   5.124   8.341   0.452 -1.1395  0.4789 -0.2134
 3250SOL    HW210945   5.091   8.228   0.548 -1.1382  0.2732 -0.4550
 3251SOL     OW10946   1.201   1.785   0.043 -0.1683 -0.1373 -0.3181
 3251SOL    HW110947   1.194   1.790  -0.052 -1.9732 -0.2646 -0.2393
 3251SOL    HW210948   1.119   1.824   0.075  0.3293 -0.2474  1.1728
 3252SOL     OW10949   3.259   2.017   6.292 -0.0411 -0.1847  0.0484
 3252SOL    HW110950   3.353   2.028   6.293  0.1410 -1.2790 -1.2771
 3252SOL    HW210951   3.233   2.034   6.201 -1.2098  0.7282  0.5301
 3253SOL     OW10952   5.987   7.691   4.968  0.1559  0.1551 -0.1956
 3253SOL    HW110953   6.081   7.689   4.986 -0.0522 -1.4382  0.9225
 3253SOL    HW210954   5.970   7.782   4.942  1.9959  0.4701 -0.4799
 3254SOL     OW10955   4.956   7.458   5.211 -0.2327 -0.2109  0.5128
 3254SOL    HW110956   5.001   7.375   5.195  0.8749  0.2659  1.0450
 3254SOL    HW210957   4.888   7.461   5.144  1.5793 -0.1978 -1.4197
 3255SOL     OW10958   5.670   0.922   3.065  0.4811 -0.1667 -0.1263
 3255SOL    HW110959   5.683   0.920   2.971  0.1504  0.2719 -0.1841
 3255SOL    HW210960   5.627   1.005   3.082  1.3782  0.1815  0.5259
 3256SOL     OW10961   3.200   3.681   7.891 -0.5605 -0.3165  0.6304
 3256SOL    HW110962   3.252   3.688   7.812 -0.3357 -1.6244  0.6344
 3256SOL    HW210963   3.161   3.593   7.887 -0.3018 -0.5280  2.0964
 3257SOL     OW10964   4.142   1.841   3.037  0.3442  0.2363 -0.2790
 3257SOL    HW110965   4.105   1.788   2.967  1.2478 -0.1441 -0.4799
 3257SOL    HW210966   4.231   1.861   3.008  0.9907 -0.5458  1.0625
 3258SOL     OW10967   6.514   0.090   1.316  1.2338 -0.4279 -0.0929
 3258SOL    HW110968   6.513   0.169   1.262  1.4398 -0.1959  0.2428
 3258SOL    HW210969   6.455   0.110   1.389 -1.8799 -1.9844 -1.9617
 3259SOL     OW10970   5.786   5.762   7.482  0.8292 -0.1191  0.5660
 3259SOL    HW110971   5.717   5.808   7.435  0.2702 -1.3324  0.1387
 3259SOL    HW210972   5.833   5.713   7.414  2.5767  1.2115  0.7507
 3260SOL     OW10973   3.534   1.996   4.980 -0.0680 -0.2945 -0.5317
 3260SOL    HW110974   3.622   1.983   4.945  2.4792 -1.0671  5.0399
 3260SOL    HW210975   3.502   1.908   4.998  1.5511 -0.2228  4.1757
 3261SOL     OW10976   3.297   8.499   5.164  0.2904 -0.2715 -0.1091
 3261SOL    HW110977   3.206   8.496   5.194  0.4472 -2.5219  0.3387
 3261SOL    HW210978   3.337   8.566   5.219 -1.4503  2.1463 -1.5940
 3262SOL     OW10979   3.701   4.562   5.812 -0.2571 -0.0322 -0.4463
 3262SOL    HW110980   3.630   4.534   5.753 -0.0316  1.7455 -1.6418
 3262SOL    HW210981   3.675   4.650   5.840  0.9468  0.1933  0.0050
 3263SOL     OW10982   3.467   6.119   7.750  0.5901  0.1612 -0.8198
 3263SOL    HW110983   3.452   6.161   7.835 -0.0890 -0.0706 -0.8181
 3263SOL    HW210984   3.397   6.153   7.694 -0.9678 -2.1155 -0.4007
 3264SOL     OW10985   1.489   6.485   3.615  0.2898 -0.7784  0.5614
 3264SOL    HW110986   1.508   6.563   3.668 -1.6974  1.5409 -1.8191
 3264SOL    HW210987   1.430   6.433   3.669 -1.1730  1.1985  0.9971
 3265SOL     OW10988   7.660   6.415   8.371 -0.4559 -0.5887 -0.2168
 3265SOL    HW110989   7.708   6.422   8.288  0.7704  0.6368  0.5450
 3265SOL    HW210990   7.583   6.470   8.358 -1.0254 -1.5347 -1.0099
 3266SOL     OW10991   8.361   4.451   0.005  0.7207 -0.2032  0.0928
 3266SOL    HW110992   8.271   4.475  -0.019  1.3082  2.6614  0.3674
 3266SOL    HW210993   8.353   4.362   0.040 -1.6559 -0.8255 -1.7283
 3267SOL     OW10994   2.542   5.305   5.416 -0.1313 -0.2678 -0.1243
 3267SOL    HW110995   2.486   5.266   5.484 -2.0039 -0.2531 -1.5506
 3267SOL    HW210996   2.552   5.236   5.351  1.6093 -0.2732  0.1023
 3268SOL     OW10997   7.514   3.146   3.039  0.2480  0.2086 -0.0482
 3268SOL    HW110998   7.465   3.162   3.120 -1.2592  0.0374 -0.8883
 3268SOL    HW210999   7.478   3.065   3.005  0.2740  0.7094 -1.3144
 3269SOL     OW11000   0.273   0.607   8.394 -0.9308  0.2820 -0.1318
 3269SOL    HW111001   0.326   0.536   8.360 -2.8806 -0.4018 -1.9325
 3269SOL    HW211002   0.189   0.567   8.417 -1.2877  1.5955  1.0421
 3270SOL     OW11003   3.005   7.712   3.754 -0.7271 -0.2974  0.7057
 3270SOL    HW111004   3.011   7.769   3.678  0.3160 -2.2434 -0.7716
 3270SOL    HW211005   2.912   7.688   3.758 -0.7264 -0.5113 -0.2581
 3271SOL     OW11006   0.580   7.559   6.842  0.2885 -0.8730  0.1204
 3271SOL    HW111007   0.492   7.560   6.805  1.0708  0.6643 -1.8733
 3271SOL    HW211008   0.634   7.516   6.776  1.8566  2.5074 -0.9959
 3272SOL     OW11009   3.639   7.038   1.655 -0.1041 -0.3139 -1.2790
 3272SOL    HW111010   3.706   6.979   1.620 -0.5451 -0.0042 -2.7127
 3272SOL    HW211011   3.689   7.109   1.695  0.4243 -1.1122 -0.4845
 3273SOL     OW11012   4.782   0.603   3.724  0.2614  0.5369  1.1663
 3273SOL    HW111013   4.763   0.697   3.724 -1.2534  0.2643  2.6809
 3273SOL    HW211014   4.705   0.563   3.684  0.4142 -0.1412  1.5420
 3274SOL     OW11015   3.001   3.503   7.671  0.2792  0.0842  0.5640
 3274SOL    HW111016   3.034   3.441   7.607 -1.1587 -0.1180 -0.0131
 3274SOL    HW211017   3.046   3.585   7.650  0.0479 -0.0534 -0.5116
 3275SOL     OW11018   1.186   0.325   1.996  0.0082  0.0445 -0.1021
 3275SOL    HW111019   1.208   0.391   2.062  1.0856  0.1539 -0.5482
 3275SOL    HW211020   1.271   0.298   1.960 -0.5352 -0.2720 -1.1964
 3276SOL     OW11021   5.907   3.152   4.473  0.1559  0.8550  0.2175
 3276SOL    HW111022   5.839   3.085   4.468  0.0384  0.8462  1.5878
 3276SOL    HW211023   5.877   3.211   4.542  0.2870  2.3049 -0.9034
 3277SOL     OW11024   0.945   6.761   1.213  0.1839 -0.4313 -0.3957
 3277SOL    HW111025   1.009   6.794   1.275  0.2865 -0.5257 -0.4509
 3277SOL    HW211026   0.862   6.800   1.240  0.4441  0.5864 -0.9975
 3278SOL     OW11027   4.401   0.632   7.591  0.0072 -0.1033 -0.2591
 3278SOL    HW111028   4.326   0.689   7.608 -0.1784 -0.8902  1.8686
 3278SOL    HW211029   4.471   0.669   7.644 -0.3088 -2.1498  1.7419
 3279SOL     OW11030   5.567   2.197   2.652  0.0295 -0.2862 -0.1469
 3279SOL    HW111031   5.507   2.198   2.727 -0.8716  2.6673 -0.7983
 3279SOL    HW211032   5.652   2.173   2.690 -0.5932  0.1861  1.6342
 3280SOL     OW11033   5.478   7.864   0.781  0.5785  0.0935 -0.0608
 3280SOL    HW111034   5.395   7.860   0.829  0.1536 -0.2577 -0.8045
 3280SOL    HW211035   5.537   7.913   0.838 -0.7507  2.2149 -0.3881
 3281SOL     OW11036   7.602   7.501   4.426  0.1212 -0.4061 -0.0883
 3281SOL    HW111037   7.641   7.423   4.385 -1.5131 -1.5095  0.3373
 3281SOL    HW211038   7.509   7.494   4.405 -0.3414  0.4318  1.5573
 3282SOL     OW11039   0.285   5.743   2.107  0.2681 -0.1424 -0.4509
 3282SOL    HW111040   0.261   5.830   2.140 -0.1901  0.1218 -1.4494
 3282SOL    HW211041   0.311   5.757   2.016  0.3148 -1.0269 -0.5874
 3283SOL     OW11042   8.543   5.672   7.529  0.0405  0.3479 -0.8567
 3283SOL    HW111043   8.561   5.653   7.437 -0.3435  0.9397 -1.0592
 3283SOL    HW211044   8.552   5.588   7.573 -1.0128 -0.1868 -1.6248
 3284SOL     OW11045   5.514   8.264   3.217 -0.8150  0.0354  0.3056
 3284SOL    HW111046   5.456   8.339   3.204 -1.4476 -0.0647  2.1269
 3284SOL    HW211047   5.591   8.282   3.164 -1.3580  1.5195 -0.0048
 3285SOL     OW11048   4.574   5.768   1.468 -0.0639 -0.0168  0.5469
 3285SOL    HW111049   4.524   5.764   1.387 -0.2113  2.4581  0.4289
 3285SOL    HW211050   4.664   5.781   1.440  0.0628 -0.3692  0.7836
 3286SOL     OW11051   2.618   6.531   1.028 -0.5818  0.4379 -0.1282
 3286SOL    HW111052   2.619   6.437   1.012 -3.2429  0.3866 -0.3946
 3286SOL    HW211053   2.632   6.540   1.122  0.5461 -0.1430 -0.2236
 3287SOL     OW11054   0.426   1.935   5.296  0.4362 -0.1022 -0.0645
 3287SOL    HW111055   0.383   1.857   5.261 -0.6505  0.2554  0.4153
 3287SOL    HW211056   0.364   2.006   5.279  1.5172  0.7066 -0.7148
 3288SOL     OW11057   3.952   3.273   0.805  0.7449 -0.4983 -0.1597
 3288SOL    HW111058   3.902   3.203   0.762 -2.3022  1.5390 -0.1839
 3288SOL    HW211059   3.970   3.239   0.892 -2.6956 -0.5891  0.6462
 3289SOL     OW11060   4.078   1.101   6.870  0.0558  0.3522 -0.1032
 3289SOL    HW111061   4.060   1.060   6.955 -2.2291  1.3436 -0.0329
 3289SOL    HW211062   4.165   1.140   6.881 -0.0649  0.2175  1.6906
 3290SOL     OW11063   4.089   2.936   4.166 -0.7571  0.2001  0.2413
 3290SOL    HW111064   3.998   2.917   4.144 -0.8871 -0.1284  1.0266
 3290SOL    HW211065   4.100   2.902   4.255  0.9323 -2.4289 -0.8285
 3291SOL     OW11066   0.325   0.027   3.896  0.2371 -0.5953  0.1948
 3291SOL    HW111067   0.243   0.044   3.942  0.2900  0.4152 -0.0805
 3291SOL    HW211068   0.393   0.059   3.955  0.4073 -0.9371  0.1867
 3292SOL     OW11069   0.334   0.024   5.667 -0.0129 -0.7728 -0.1626
 3292SOL    HW111070   0.346  -0.071   5.673 -0.9245 -0.8430  0.8706
 3292SOL    HW211071   0.388   0.050   5.593  0.0004 -2.1457 -0.6688
 3293SOL     OW11072   6.497   0.127   3.177 -0.0432  0.0036  0.0005
 3293SOL    HW111073   6.459   0.137   3.265 -2.1497  0.2871 -0.8862
 3293SOL    HW211074   6.490   0.214   3.138  0.9439 -0.1048 -0.4379
 3294SOL     OW11075   1.655   4.928   5.458  0.2750 -0.2855  0.2315
 3294SOL    HW111076   1.570   4.959   5.427  0.6862 -0.6017 -1.2797
 3294SOL    HW211077   1.653   4.833   5.445  2.0731  0.0042 -3.1558
 3295SOL     OW11078   1.486   2.719   4.050 -0.1350  0.0173 -0.5767
 3295SOL    HW111079   1.445   2.652   3.995 -0.1841 -0.9817  0.6498
 3295SOL    HW211080   1.437   2.717   4.132 -0.0427  1.4702 -0.4576
 3296SOL     OW11081   1.140   7.506   5.400  0.5666 -0.2006  0.0469
 3296SOL    HW111082   1.108   7.584   5.445  0.5246 -0.3251  0.2343
 3296SOL    HW211083   1.179   7.539   5.319 -2.7526 -0.2324 -1.7382
 3297SOL     OW11084   5.172   4.536   5.683 -0.1386  0.1615 -0.0056
 3297SOL    HW111085   5.233   4.502   5.617  0.1231  1.1175 -0.2878
 3297SOL    HW211086   5.100   4.573   5.632 -0.7538 -0.5697  0.3133
 3298SOL     OW11087   3.277   1.106   0.597  0.2461 -0.4383 -0.2127
 3298SOL    HW111088   3.335   1.174   0.632  1.0077 -0.3691 -1.5167
 3298SOL    HW211089   3.330   1.063   0.529 -0.8796 -1.0728 -0.7139
 3299SOL     OW11090   2.914   6.251   6.189 -0.4006 -0.3769 -0.1312
 3299SOL    HW111091   2.967   6.193   6.134 -0.0705  0.7486 -1.0251
 3299SOL    HW211092   2.905   6.331   6.139 -1.3488  0.1549  0.8389
 3300SOL     OW11093   6.193   2.106   6.388 -0.5156  0.0527  0.1277
 3300SOL    HW111094   6.153   2.029   6.426  0.9493 -0.5601  0.4982
 3300SOL    HW211095   6.197   2.087   6.294 -1.2919  0.2294  0.0519
 3301SOL     OW11096   0.530   2.120   7.699 -0.9469  0.2901  0.1360
 3301SOL    HW111097   0.506   2.210   7.679  0.0911  0.4549 -0.4796
 3301SOL    HW211098   0.497   2.105   7.788 -0.9074  1.3633  0.3465
 3302SOL     OW11099   5.474   5.260   8.095  0.2266  0.3341  0.4537
 3302SOL    HW111100   5.447   5.178   8.136  1.1567  0.3198  1.0857
 3302SOL    HW211101   5.430   5.261   8.010 -1.5795  0.2572  1.3348
 3303SOL     OW11102   6.892   5.932   3.742  0.2519  0.1929 -0.4262
 3303SOL    HW111103   6.909   5.911   3.833  0.3443 -0.2150 -0.5346
 3303SOL    HW211104   6.906   5.849   3.695  0.4947  0.4692 -0.8464
 3304SOL     OW11105   2.370   1.891   5.947  0.4245 -0.4723 -0.3389
 3304SOL    HW111106   2.331   1.900   6.034 -1.9186 -0.5076 -1.2959
 3304SOL    HW211107   2.410   1.976   5.929 -0.3458  0.0190  0.2148
 3305SOL     OW11108   0.655   7.428   0.948  0.1386 -0.6037 -0.0205
 3305SOL    HW111109   0.630   7.464   1.034 -0.2611 -1.0879  0.0674
 3305SOL    HW211110   0.749   7.412   0.956  0.2807  0.1784  0.0245
 3306SOL     OW11111   4.022   7.131   7.047  0.0849  0.6025  0.0410
 3306SOL    HW111112   3.955   7.122   6.979  0.9799  0.6279 -0.8757
 3306SOL    HW211113   4.080   7.200   7.014  0.7054  0.4050  0.6952
 3307SOL     OW11114   0.402   2.390   6.827 -0.2530 -0.0161 -0.7366
 3307SOL    HW111115   0.463   2.345   6.885  0.4140  1.2249 -0.4568
 3307SOL    HW211116   0.343   2.437   6.886  0.2043  0.9602 -1.0355
 3308SOL     OW11117   6.034   5.154   3.648  0.1036  0.0035  0.2117
 3308SOL    HW111118   5.949   5.181   3.614 -0.4825 -1.6689  0.2342
 3308SOL    HW211119   6.093   5.158   3.572 -0.4222 -0.5119 -0.2351
 3309SOL     OW11120   3.338   8.520   4.672 -0.2382 -0.2399  0.2487
 3309SOL    HW111121   3.273   8.455   4.646  0.6332 -1.0990  0.1969
 3309SOL    HW211122   3.422   8.478   4.657  0.3316  0.6431  0.8862
 3310SOL     OW11123   2.020   6.929   7.000  0.4842 -0.4543 -0.0226
 3310SOL    HW111124   1.969   6.971   7.069 -0.2568  0.4552 -1.0865
 3310SOL    HW211125   2.035   6.840   7.031 -2.2689 -0.9692  0.1114
 3311SOL     OW11126   3.921   5.349   1.549 -0.1923  0.0403 -0.0676
 3311SOL    HW111127   3.957   5.290   1.615 -1.6732 -1.1875 -0.3138
 3311SOL    HW211128   3.832   5.317   1.533 -1.3001  2.6887  0.2300
 3312SOL     OW11129   4.396   6.765   0.379 -0.2433  0.1421 -0.5425
 3312SOL    HW111130   4.467   6.769   0.443 -0.5833 -1.0875 -0.0644
 3312SOL    HW211131   4.439   6.780   0.295  0.8621 -2.0477 -0.4380
 3313SOL     OW11132   1.374   2.082   2.390 -0.3105  0.3901  0.0370
 3313SOL    HW111133   1.429   2.146   2.345  0.9662 -0.6948 -0.0189
 3313SOL    HW211134   1.344   2.127   2.469  1.0667  0.8481  0.3134
 3314SOL     OW11135   1.252   1.104   5.738 -0.1247 -0.6413  0.2007
 3314SOL    HW111136   1.232   1.090   5.830 -2.5793  0.0489 -0.1438
 3314SOL    HW211137   1.318   1.173   5.738 -1.6756  0.9516  1.4790
 3315SOL     OW11138   6.619   0.489   2.721 -0.3641 -0.1812 -0.3171
 3315SOL    HW111139   6.654   0.573   2.749 -1.2745  0.7049 -1.7565
 3315SOL    HW211140   6.696   0.435   2.704  0.2421  0.6446 -0.2149
 3316SOL     OW11141   5.262   5.021   1.209 -0.2868  0.2805 -0.3355
 3316SOL    HW111142   5.232   5.096   1.157 -1.4344  2.2843  2.9496
 3316SOL    HW211143   5.357   5.033   1.214 -0.1722  0.1573 -1.7099
 3317SOL     OW11144   7.553   7.570   5.835 -0.0722 -0.1951 -0.4713
 3317SOL    HW111145   7.495   7.592   5.762 -1.4358 -0.9406  0.3391
 3317SOL    HW211146   7.640   7.600   5.807 -0.8848  1.2207 -1.6018
 3318SOL     OW11147   0.532   1.458   1.612 -0.7351  0.6694  0.4769
 3318SOL    HW111148   0.538   1.469   1.517 -0.7891  0.3777  0.4387
 3318SOL    HW211149   0.457   1.400   1.624  0.3390 -0.7396  0.5889
 3319SOL     OW11150   0.362   3.903   6.971  0.5418  0.0877  0.1579
 3319SOL    HW111151   0.375   3.810   6.957 -0.9707 -0.1261  0.0658
 3319SOL    HW211152   0.369   3.914   7.066  3.2286  0.3343  0.0249
 3320SOL     OW11153   3.349   6.239   4.958  0.2605  0.1423  0.2819
 3320SOL    HW111154   3.329   6.320   5.005 -3.3340 -0.0540 -0.6413
 3320SOL    HW211155   3.353   6.264   4.866 -1.0044 -0.6808 -0.0273
 3321SOL     OW11156   4.126   5.276   8.471  0.0850  0.4029 -0.5284
 3321SOL    HW111157   4.063   5.292   8.541  0.9220 -0.3351  0.4429
 3321SOL    HW211158   4.184   5.352   8.473 -0.2150  0.6356 -0.7769
 3322SOL     OW11159   8.293   5.962   6.750 -0.1598  0.3930 -0.3787
 3322SOL    HW111160   8.216   5.909   6.728 -0.8486  1.3066 -0.2735
 3322SOL    HW211161   8.355   5.946   6.679 -0.9880  0.6605 -1.1929
 3323SOL     OW11162   6.160   3.187   5.647  0.2935 -0.1800  0.0906
 3323SOL    HW111163   6.216   3.186   5.724  1.4379 -0.4181 -0.7263
 3323SOL    HW211164   6.112   3.269   5.653  0.5700 -0.0675  0.9040
 3324SOL     OW11165   1.232   1.811   8.375  0.5639  0.3844  1.0385
 3324SOL    HW111166   1.264   1.726   8.346  2.0282  1.1470  0.2835
 3324SOL    HW211167   1.213   1.858   8.294 -1.3216  0.4067  1.4600
 3325SOL     OW11168   2.101   0.717   5.408  0.1099 -0.3845 -0.2906
 3325SOL    HW111169   2.179   0.677   5.447 -0.2082 -0.9728 -0.2497
 3325SOL    HW211170   2.072   0.781   5.472 -0.8019 -1.8127  0.7753
 3326SOL     OW11171   1.890   2.903   2.505 -0.6027  0.5513  0.5913
 3326SOL    HW111172   1.919   2.823   2.548 -0.4187  0.3013  0.0098
 3326SOL    HW211173   1.874   2.965   2.577 -1.0148 -0.0890  1.0556
 3327SOL     OW11174   6.882   2.317   0.131 -0.1731  0.1940 -0.4506
 3327SOL    HW111175   6.854   2.367   0.208 -1.0747 -0.9839  0.0188
 3327SOL    HW211176   6.825   2.349   0.061  2.1212  2.8637 -1.2300
 3328SOL     OW11177   8.537   8.464   7.791  0.0642 -0.6248  0.3158
 3328SOL    HW111178   8.526   8.525   7.864  1.2265  0.2351 -0.1940
 3328SOL    HW211179   8.499   8.510   7.716  1.0811 -0.4530 -0.1020
 3329SOL     OW11180   8.115   8.418   7.736 -0.6608 -0.1113  0.3254
 3329SOL    HW111181   8.062   8.497   7.743 -0.3401 -0.0148  1.8814
 3329SOL    HW211182   8.121   8.384   7.825  1.1975 -0.5750  0.0708
 3330SOL     OW11183   3.394   3.591   8.127 -0.0332  0.0992  0.5617
 3330SOL    HW111184   3.445   3.532   8.072 -0.8120 -1.2348  1.1971
 3330SOL    HW211185   3.408   3.678   8.089  0.7677 -0.5472 -0.7088
 3331SOL     OW11186   2.263   8.517   1.783  0.3532  0.0005  0.0635
 3331SOL    HW111187   2.174   8.544   1.760 -0.0150  0.9800  2.3121
 3331SOL    HW211188   2.319   8.572   1.729 -0.4340  3.4965  2.4794
 3332SOL     OW11189   1.136   3.395   0.251 -0.5052 -0.3830  0.2941
 3332SOL    HW111190   1.193   3.431   0.183 -1.5914 -0.1213 -0.5022
 3332SOL    HW211191   1.047   3.410   0.218 -1.1600  1.7605  2.7519
 3333SOL     OW11192   8.577   8.511   1.125 -0.3508  0.5867 -0.0000
 3333SOL    HW111193   8.554   8.572   1.195  1.1150 -0.8942  1.8694
 3333SOL    HW211194   8.595   8.428   1.169 -0.5870 -0.7673 -2.2813
 3334SOL     OW11195   4.856   2.449   2.036 -0.2133 -0.2358 -1.0697
 3334SOL    HW111196   4.939   2.495   2.041  0.0701 -0.8774  0.9833
 3334SOL    HW211197   4.790   2.515   2.057 -0.0156 -0.2219 -0.4834
 3335SOL     OW11198   3.494   2.095   7.800 -0.2017  0.3827 -0.0716
 3335SOL    HW111199   3.412   2.133   7.831 -0.0063 -0.3672  1.5076
 3335SOL    HW211200   3.532   2.161   7.743 -0.8903  1.6433  0.8764
 3336SOL     OW11201   4.600   0.443   2.427 -0.4695  0.0142 -0.1783
 3336SOL    HW111202   4.650   0.487   2.358 -0.3029  0.4440  0.2140
 3336SOL    HW211203   4.640   0.356   2.434  0.0223  0.2447 -0.0859
 3337SOL     OW11204   7.212   5.368   1.054 -0.0006  0.0205  0.1265
 3337SOL    HW111205   7.252   5.400   1.135  0.6223  1.4037 -0.7099
 3337SOL    HW211206   7.194   5.275   1.072  1.0638  0.0441  1.4784
 3338SOL     OW11207   2.713   4.295   5.658 -0.5433  0.6429  0.0071
 3338SOL    HW111208   2.640   4.247   5.695 -0.3425 -2.2827 -2.8531
 3338SOL    HW211209   2.757   4.336   5.733 -0.6717 -3.8789  2.9114
 3339SOL     OW11210   4.949   4.562   4.320 -0.4896  0.6368  0.3643
 3339SOL    HW111211   4.865   4.516   4.318 -0.0271 -0.2039 -0.3412
 3339SOL    HW211212   4.926   4.654   4.303 -1.1058  0.1596 -1.6044
 3340SOL     OW11213   4.798   1.606   6.866 -0.2075  0.5558 -0.7161
 3340SOL    HW111214   4.865   1.539   6.879  1.0008  1.3604 -2.3046
 3340SOL    HW211215   4.824   1.649   6.784 -2.0657  1.6381 -0.7856
 3341SOL     OW11216   6.815   6.489   5.509 -0.1213  0.4784  0.3158
 3341SOL    HW111217   6.899   6.520   5.542  0.5323 -1.0167  0.1303
 3341SOL    HW211218   6.774   6.566   5.470  1.4740  1.0781 -0.2317
 3342SOL     OW11219   8.190   4.001   4.223 -0.5463 -0.4776  0.1687
 3342SOL    HW111220   8.182   3.974   4.315  0.8957  0.2551  0.5322
 3342SOL    HW211221   8.198   4.096   4.227 -0.5851 -0.4312 -0.7450
 3343SOL     OW11222   2.711   5.414   1.001 -0.1832  0.0629 -0.8442
 3343SOL    HW111223   2.747   5.332   1.035 -1.4190 -0.8447 -1.6397
 3343SOL    HW211224   2.758   5.482   1.049  0.4858 -1.1126  0.2452
 3344SOL     OW11225   2.566   5.713   1.538  0.1696 -0.0167 -0.1795
 3344SOL    HW111226   2.597   5.661   1.612 -0.3583 -0.9286 -0.5931
 3344SOL    HW211227   2.544   5.798   1.576  1.7085  0.1526  0.3814
 3345SOL     OW11228   4.549   2.492   2.104 -0.5881 -0.0621  0.6273
 3345SOL    HW111229   4.566   2.512   2.197 -3.0077 -1.1428  1.3753
 3345SOL    HW211230   4.514   2.573   2.068  0.0969  0.2773  0.7010
 3346SOL     OW11231   2.629   7.104   4.561  0.3728 -0.3252  0.2013
 3346SOL    HW111232   2.569   7.038   4.594  0.2359  0.7672  2.2783
 3346SOL    HW211233   2.657   7.070   4.476 -0.4069 -2.5744  0.7708
 3347SOL     OW11234   8.275   0.477   4.815 -0.4488 -0.2597  0.5888
 3347SOL    HW111235   8.238   0.430   4.890 -0.8890 -0.6972  0.1090
 3347SOL    HW211236   8.241   0.431   4.739  0.1162  0.0854  0.1157
 3348SOL     OW11237   1.235   4.688   1.786 -0.5004 -0.2323  0.3458
 3348SOL    HW111238   1.189   4.685   1.870 -1.1789  0.9608  0.0409
 3348SOL    HW211239   1.273   4.600   1.776 -0.8842 -0.5634  1.6223
 3349SOL     OW11240   0.365   8.382   3.754 -0.0430 -0.0613  0.1328
 3349SOL    HW111241   0.362   8.470   3.792  0.4143 -0.7454  1.8773
 3349SOL    HW211242   0.283   8.341   3.781  0.4760 -0.6978  0.8275
 3350SOL     OW11243   2.243   2.592   4.922  0.5689  0.0755 -0.3665
 3350SOL    HW111244   2.279   2.508   4.893  1.1744  0.4697 -0.7704
 3350SOL    HW211245   2.155   2.570   4.953  1.0396 -0.8652  0.4020
 3351SOL     OW11246   1.736   0.559   5.064 -0.3172  0.1758  0.2267
 3351SOL    HW111247   1.818   0.565   5.114  0.3899  0.0765 -0.8861
 3351SOL    HW211248   1.754   0.608   4.984 -1.3030  0.0156 -0.0986
 3352SOL     OW11249   4.864   0.412   7.659 -0.0737  0.3591  0.6230
 3352SOL    HW111250   4.923   0.474   7.702  0.0851  0.4302  0.3025
 3352SOL    HW211251   4.921   0.355   7.608 -0.3879  1.3574 -0.8733
 3353SOL     OW11252   0.774   3.900   1.246 -0.1524 -0.4194  0.2648
 3353SOL    HW111253   0.865   3.891   1.217 -0.0635  1.7826 -0.2412
 3353SOL    HW211254   0.756   3.818   1.292  1.6220 -1.4902 -0.8371
 3354SOL     OW11255   2.112   0.194   7.444  0.4734  0.1593 -0.4994
 3354SOL    HW111256   2.028   0.151   7.432  0.2300  0.5191 -0.1492
 3354SOL    HW211257   2.145   0.160   7.527  1.2482 -0.8862 -1.2099
 3355SOL     OW11258   4.821   5.429   4.997 -0.2601 -0.1005  0.1556
 3355SOL    HW111259   4.903   5.408   4.952 -1.7558 -0.5072 -2.5655
 3355SOL    HW211260   4.820   5.525   5.002  1.2832 -0.1142  2.1864
 3356SOL     OW11261   3.008   7.889   1.844 -0.1470  0.0022  0.0459
 3356SOL    HW111262   3.069   7.920   1.777  0.0077 -0.0500  0.1601
 3356SOL    HW211263   3.061   7.830   1.899 -0.4373 -0.4594 -0.1644
 3357SOL     OW11264   8.219   5.326   1.536 -0.2343  0.0866 -0.2931
 3357SOL    HW111265   8.159   5.401   1.539  2.3841  2.3676 -0.5201
 3357SOL    HW211266   8.241   5.309   1.628 -1.0619 -0.6561 -0.2198
 3358SOL     OW11267   4.847   2.208   7.882  0.6776 -0.0592  0.2355
 3358SOL    HW111268   4.816   2.230   7.970  0.7433 -1.1731  0.5555
 3358SOL    HW211269   4.916   2.272   7.865 -0.0749  0.8631  0.5343
 3359SOL     OW11270   7.596   8.405   3.434 -0.5169  0.5228  0.3365
 3359SOL    HW111271   7.577   8.390   3.526  1.1595 -1.5670  0.4415
 3359SOL    HW211272   7.563   8.327   3.389  0.0651  0.7800 -0.5933
 3360SOL     OW11273   2.761   4.447   4.965 -0.7919 -0.3728 -0.7451
 3360SOL    HW111274   2.670   4.428   4.943 -1.4304  1.2411  0.3012
 3360SOL    HW211275   2.755   4.506   5.040  1.0757  1.2352 -1.7974
 3361SOL     OW11276   2.544   2.210   4.803  0.3823 -0.0162 -0.6895
 3361SOL    HW111277   2.532   2.117   4.823 -2.1119 -0.3910 -3.1939
 3361SOL    HW211278   2.597   2.244   4.875  1.0756 -3.2707  0.5104
 3362SOL     OW11279   3.874   3.806   8.122  0.3271  0.1978 -0.2984
 3362SOL    HW111280   3.838   3.782   8.036  0.4330 -1.6960  0.1488
 3362SOL    HW211281   3.834   3.891   8.142 -1.2832 -0.2903 -1.3096
 3363SOL     OW11282   8.101   6.078   1.442  0.0176  0.3952  0.2744
 3363SOL    HW111283   8.174   6.021   1.468 -2.0203 -2.2921  0.5644
 3363SOL    HW211284   8.100   6.147   1.508  1.9644  0.2481  0.5355
 3364SOL     OW11285   1.624   8.493   5.428 -0.3647 -0.9441 -0.0228
 3364SOL    HW111286   1.660   8.427   5.368  0.8194  0.4379 -0.8998
 3364SOL    HW211287   1.594   8.564   5.371  2.8472  1.4394  0.9510
 3365SOL     OW11288   7.475   6.244   7.887 -0.3186 -0.4033  0.1352
 3365SOL    HW111289   7.523   6.228   7.806 -1.4539 -1.0176 -0.4262
 3365SOL    HW211290   7.463   6.158   7.926  1.2944 -0.0227  1.6283
 3366SOL     OW11291   0.212   2.158   4.876  0.5747  0.2330 -0.0457
 3366SOL    HW111292   0.214   2.171   4.781  1.1735 -2.0176 -0.3958
 3366SOL    HW211293   0.290   2.204   4.908 -0.4617  2.3323 -0.3999
 3367SOL     OW11294   4.859   2.590   7.171 -0.1967  0.1430 -0.3940
 3367SOL    HW111295   4.935   2.647   7.156  0.4338 -0.7852 -0.7859
 3367SOL    HW211296   4.839   2.603   7.264  2.1871 -1.6272  0.4661
 3368SOL     OW11297   3.054   7.456   7.078  0.2215  0.1712 -0.3640
 3368SOL    HW111298   2.977   7.482   7.026 -0.4885 -0.7772  0.1789
 3368SOL    HW211299   3.128   7.493   7.030 -0.4653 -0.0209 -1.6295
 3369SOL     OW11300   7.684   4.325   0.039  0.4633  0.0064 -0.0946
 3369SOL    HW111301   7.764   4.323   0.092  0.0496 -2.7123  0.5711
 3369SOL    HW211302   7.613   4.310   0.101 -0.3556 -0.0324 -1.0053
 3370SOL     OW11303   7.496   1.293   2.900  0.1334 -0.0336  0.7110
 3370SOL    HW111304   7.474   1.212   2.854  0.3289 -0.3620  1.1781
 3370SOL    HW211305   7.588   1.282   2.924  0.0835  0.2055  1.0177
 3371SOL     OW11306   4.714   2.908   0.646 -0.2242 -0.3340 -0.9428
 3371SOL    HW111307   4.713   2.920   0.551  0.1243  0.1575 -0.8847
 3371SOL    HW211308   4.706   2.996   0.682 -1.2160 -0.5903 -0.5092
 3372SOL     OW11309   4.906   3.363   5.715  0.0885 -0.2028 -0.2658
 3372SOL    HW111310   4.844   3.331   5.780 -1.3842  1.5009 -0.7640
 3372SOL    HW211311   4.953   3.434   5.759  1.0107 -0.8439 -0.2029
 3373SOL     OW11312   0.160   6.207   3.860  0.2002 -0.5815 -0.4416
 3373SOL    HW111313   0.153   6.301   3.845  2.5387 -0.1528  0.7101
 3373SOL    HW211314   0.069   6.178   3.872 -0.5226  1.7089  0.1780
 3374SOL     OW11315   7.663   5.520   2.195  0.6026  0.2155 -0.0654
 3374SOL    HW111316   7.712   5.478   2.265  1.3632 -0.2609 -0.8520
 3374SOL    HW211317   7.571   5.505   2.217  0.8466 -0.7607  0.3286
 3375SOL     OW11318   4.446   2.046   5.271 -0.6773 -0.1538 -0.4471
 3375SOL    HW111319   4.530   2.045   5.225  0.1196 -0.3791  0.9308
 3375SOL    HW211320   4.439   2.135   5.306 -1.0188 -0.1334 -0.5638
 3376SOL     OW11321   1.695   7.104   7.588  0.4657  0.6436  0.3324
 3376SOL    HW111322   1.720   7.014   7.611 -0.3018  0.5579  0.8966
 3376SOL    HW211323   1.768   7.158   7.618 -0.5206  0.5576  3.2076
 3377SOL     OW11324   7.363   1.585   2.503 -0.1216  0.4626 -0.2908
 3377SOL    HW111325   7.296   1.638   2.547 -0.2112  0.3249 -0.2620
 3377SOL    HW211326   7.428   1.567   2.570 -0.9953 -1.0235  0.1984
 3378SOL     OW11327   8.028   6.329   8.097  0.1834 -0.1528  0.6253
 3378SOL    HW111328   8.039   6.245   8.052 -0.8219 -0.4545  0.9128
 3378SOL    HW211329   8.035   6.308   8.190  0.6042  0.2039  0.6820
 3379SOL     OW11330   1.433   0.789   0.137 -0.4239 -0.3546 -0.1860
 3379SOL    HW111331   1.419   0.873   0.094 -2.3532 -0.2628  0.5497
 3379SOL    HW211332   1.474   0.811   0.221 -1.6571 -0.0572  0.3523
 3380SOL     OW11333   8.012   1.169   7.641  0.1363 -0.6774  0.0009
 3380SOL    HW111334   7.979   1.094   7.690  0.4069 -2.4451 -2.3440
 3380SOL    HW211335   7.934   1.209   7.602 -0.1290  0.9829  2.0500
 3381SOL     OW11336   8.256   1.657   0.745 -0.5087 -0.4386  0.3331
 3381SOL    HW111337   8.315   1.584   0.724  0.9316  0.8930 -0.4759
 3381SOL    HW211338   8.170   1.627   0.718  0.4865 -0.7858 -2.8321
 3382SOL     OW11339   6.844   5.389   2.620  0.2298 -0.3364 -0.2859
 3382SOL    HW111340   6.749   5.378   2.617  0.3891 -4.6508  2.2088
 3382SOL    HW211341   6.878   5.309   2.582  2.7895  0.0318  1.0304
 3383SOL     OW11342   5.394   0.359   3.975 -0.0221 -0.1200  0.4484
 3383SOL    HW111343   5.315   0.305   3.976 -0.5358  0.6137  1.7214
 3383SOL    HW211344   5.419   0.368   4.067  1.6361 -0.4455  0.0629
 3384SOL     OW11345   8.584   6.479   7.316  0.3906 -0.3952 -0.0128
 3384SOL    HW111346   8.617   6.492   7.228 -0.7692 -1.1521 -0.5825
 3384SOL    HW211347   8.561   6.568   7.346  1.5605 -0.0370 -0.1321
 3385SOL     OW11348   1.682   4.099   7.419  0.3522 -0.0322 -0.4376
 3385SOL    HW111349   1.765   4.053   7.408  0.2695  0.2447 -2.4491
 3385SOL    HW211350   1.617   4.040   7.383 -0.2322  0.1366  0.3119
 3386SOL     OW11351   5.687   2.516   2.812 -0.1105 -0.4662 -0.1305
 3386SOL    HW111352   5.653   2.448   2.870 -1.0804  1.0231  1.1165
 3386SOL    HW211353   5.767   2.547   2.855  0.0400 -0.4360 -0.4243
 3387SOL     OW11354   8.064   2.042   3.433 -0.0106  0.1701 -0.2706
 3387SOL    HW111355   7.990   2.097   3.458  1.1299  2.4707 -1.5696
 3387SOL    HW211356   8.024   1.963   3.396 -1.7057 -0.2818  2.3210
 3388SOL     OW11357   7.462   6.603   8.312 -0.1719 -0.5468  0.6208
 3388SOL    HW111358   7.432   6.676   8.366 -0.1388  0.4765 -0.7101
 3388SOL    HW211359   7.485   6.643   8.228  0.2556 -2.0303  0.0074
 3389SOL     OW11360   4.020   2.725   3.190 -0.3229 -0.4960  0.0583
 3389SOL    HW111361   3.946   2.784   3.204 -0.4215 -0.7088  0.4321
 3389SOL    HW211362   4.017   2.664   3.264 -0.1077 -0.8492 -0.2197
 3390SOL     OW11363   7.285   0.455   7.046  0.1376  0.2252 -0.4283
 3390SOL    HW111364   7.311   0.519   7.112  2.1881  0.1050 -1.0351
 3390SOL    HW211365   7.248   0.382   7.096  0.9014  0.4744  0.5305
 3391SOL     OW11366   6.633   2.583   2.698  0.7020  0.2185 -0.1825
 3391SOL    HW111367   6.632   2.591   2.603 -2.2768  1.5967 -0.1766
 3391SOL    HW211368   6.668   2.667   2.729  0.4475  0.2901 -0.0830
 3392SOL     OW11369   2.111   8.405   3.198 -0.0804  0.3976 -0.4735
 3392SOL    HW111370   2.023   8.404   3.160  0.4405 -0.0905 -1.7492
 3392SOL    HW211371   2.167   8.368   3.129  1.1342  0.7562  0.2855
 3393SOL     OW11372   1.064   1.925   6.305 -0.1680  0.2931  0.4970
 3393SOL    HW111373   1.071   1.952   6.214  0.9694  0.6206  0.6636
 3393SOL    HW211374   0.972   1.901   6.316 -0.0217 -1.2944 -1.1652
 3394SOL     OW11375   2.652   2.196   6.467  0.5440  0.2894  0.1947
 3394SOL    HW111376   2.728   2.251   6.487 -0.0505  0.8037  1.0831
 3394SOL    HW211377   2.597   2.250   6.411  1.5225 -0.6308 -1.7290
 3395SOL     OW11378   7.119   1.174   2.364  0.1818  0.2586 -0.0627
 3395SOL    HW111379   7.210   1.145   2.369  0.1527  0.0330 -0.7919
 3395SOL    HW211380   7.124   1.270   2.373  0.4031  0.1700  0.8461
 3396SOL     OW11381   7.153   3.378   5.673  0.0144  0.2543  1.0849
 3396SOL    HW111382   7.119   3.427   5.748 -0.0025 -0.5456  1.6176
 3396SOL    HW211383   7.231   3.333   5.707 -0.3912 -0.6746  0.8246
 3397SOL     OW11384   5.530   1.496   0.921 -0.0705 -0.0796 -0.0926
 3397SOL    HW111385   5.464   1.426   0.925  0.3343 -0.4284  0.6938
 3397SOL    HW211386   5.525   1.539   1.007 -0.5137  1.0576 -0.6602
 3398SOL     OW11387   2.859   3.804   6.210  0.2859 -0.6766 -0.7238
 3398SOL    HW111388   2.838   3.777   6.121  1.6799 -1.9327 -0.7040
 3398SOL    HW211389   2.787   3.768   6.263  0.5576 -1.8057 -1.0908
 3399SOL     OW11390   2.232   7.934   4.451 -0.2871  0.0834  0.0305
 3399SOL    HW111391   2.311   7.882   4.435  0.0258  0.1583  1.2367
 3399SOL    HW211392   2.220   7.984   4.370  1.4962  0.8157  0.1580
 3400SOL     OW11393   4.892   0.379   5.253  0.0552  0.3010 -0.1458
 3400SOL    HW111394   4.862   0.469   5.247  0.3796  0.3462 -1.3592
 3400SOL    HW211395   4.845   0.343   5.328  0.6374  1.7388  0.9609
 3401SOL     OW11396   3.209   0.990   3.642 -0.0175 -0.2391 -0.0020
 3401SOL    HW111397   3.247   1.039   3.714  1.2291 -0.9342 -0.1553
 3401SOL    HW211398   3.117   1.014   3.642  0.3313  1.2085  0.6342
 3402SOL     OW11399   7.018   6.369   6.514  0.3237  0.2081 -0.6136
 3402SOL    HW111400   7.089   6.433   6.518  0.1804  0.4080 -1.1707
 3402SOL    HW211401   6.946   6.409   6.562 -0.5950  1.5542 -2.9178
 3403SOL     OW11402   1.788   8.459   3.704 -0.6068  0.2784  0.3537
 3403SOL    HW111403   1.815   8.530   3.763  0.8275  1.3163 -1.4376
 3403SOL    HW211404   1.706   8.490   3.666 -1.7255 -0.5470  1.9526
 3404SOL     OW11405   0.263   4.392   5.335  0.4272  0.2317 -0.5979
 3404SOL    HW111406   0.216   4.363   5.257  0.5916  0.6142 -0.8415
 3404SOL    HW211407   0.197   4.436   5.388  0.2817 -0.1674 -0.4505
 3405SOL     OW11408   3.622   4.840   3.043 -0.4798 -0.6491  0.3845
 3405SOL    HW111409   3.617   4.936   3.038  2.8869 -0.3380  1.2244
 3405SOL    HW211410   3.574   4.818   3.123 -0.2842  0.4573  0.8279
 3406SOL     OW11411   7.875   4.166   5.174 -0.3277 -1.0237  0.1638
 3406SOL    HW111412   7.951   4.107   5.179 -0.5545 -1.4718 -1.2366
 3406SOL    HW211413   7.898   4.228   5.105 -0.1925  0.4362  1.4578
 3407SOL     OW11414   5.529   0.397   3.718 -0.1765  0.1014  0.8088
 3407SOL    HW111415   5.492   0.410   3.805 -2.9478  0.7502 -0.3363
 3407SOL    HW211416   5.502   0.308   3.694  3.7813 -1.6223  1.9045
 3408SOL     OW11417   4.282   0.997   6.114 -0.3061  0.3672  0.3552
 3408SOL    HW111418   4.355   1.001   6.051 -1.5395 -0.7425 -1.2302
 3408SOL    HW211419   4.212   1.046   6.072 -1.2891 -0.7236  0.6841
 3409SOL     OW11420   0.603   5.290   6.631  0.1192  0.0827  0.3868
 3409SOL    HW111421   0.626   5.205   6.594  0.6956  0.1462  0.5969
 3409SOL    HW211422   0.587   5.345   6.554  0.3308 -0.0563  0.2411
 3410SOL     OW11423   5.098   0.579   5.904 -0.0419  0.0677 -0.4150
 3410SOL    HW111424   5.120   0.538   5.820  0.3731 -0.8452  0.1234
 3410SOL    HW211425   5.135   0.520   5.969 -0.4987  0.6896  0.4170
 3411SOL     OW11426   8.547   6.968   2.199  0.0650 -0.0411 -0.1573
 3411SOL    HW111427   8.587   6.982   2.114 -0.0727 -0.4550 -0.2935
 3411SOL    HW211428   8.620   6.962   2.260  0.2100 -0.6801 -0.3874
 3412SOL     OW11429   2.387   4.948   8.048 -0.1629  0.0782 -0.5852
 3412SOL    HW111430   2.417   4.864   8.082 -0.2059 -0.2813 -1.3949
 3412SOL    HW211431   2.314   4.926   7.990 -1.6011  0.8906  0.8530
 3413SOL     OW11432   8.094   5.147   6.751  0.4964 -0.4118 -0.6411
 3413SOL    HW111433   8.105   5.059   6.787  2.5628  0.0812  0.0632
 3413SOL    HW211434   8.064   5.199   6.826  1.2334 -0.1364 -0.5236
 3414SOL     OW11435   1.659   1.841   5.163  0.1374  0.4028 -1.0389
 3414SOL    HW111436   1.660   1.767   5.102 -2.9337  0.3676 -1.2179
 3414SOL    HW211437   1.616   1.911   5.115  0.3335  1.3458  0.1106
 3415SOL     OW11438   8.248   2.346   7.850  0.3575 -0.2946  0.6687
 3415SOL    HW111439   8.170   2.314   7.896 -0.1666  0.9336  0.6977
 3415SOL    HW211440   8.285   2.269   7.809 -0.9802 -0.8904  0.5057
 3416SOL     OW11441   6.141   1.290   0.852 -0.3625  0.1709 -0.5152
 3416SOL    HW111442   6.086   1.362   0.821  0.0539  1.2256  1.0828
 3416SOL    HW211443   6.231   1.319   0.834 -0.2243 -0.3025 -0.5935
 3417SOL     OW11444   1.108   2.915   5.665  0.4366  0.5347 -0.0318
 3417SOL    HW111445   1.129   2.825   5.689  0.2771  0.4014 -0.3741
 3417SOL    HW211446   1.186   2.966   5.689  1.5902 -0.0906 -2.1490
 3418SOL     OW11447   6.475   7.888   4.638  0.1763  0.3006  0.0923
 3418SOL    HW111448   6.443   7.975   4.663  0.2360  0.1064  0.8566
 3418SOL    HW211449   6.556   7.877   4.688 -1.2382 -1.3125  2.1556
 3419SOL     OW11450   4.434   4.015   4.821 -0.3401  0.0156  0.0303
 3419SOL    HW111451   4.459   3.928   4.852 -1.3603 -1.1843 -2.2958
 3419SOL    HW211452   4.518   4.060   4.806  0.1870 -0.2827  1.8028
 3420SOL     OW11453   5.831   4.736   0.805  0.1836  0.9359  0.1764
 3420SOL    HW111454   5.869   4.797   0.869  0.2866  1.1324 -0.0710
 3420SOL    HW211455   5.774   4.791   0.752 -2.5082  0.2361  2.1489
 3421SOL     OW11456   8.322   2.431   2.681 -0.4609 -0.7020 -0.3847
 3421SOL    HW111457   8.358   2.348   2.648 -1.4747 -1.2405 -0.1784
 3421SOL    HW211458   8.333   2.425   2.776 -0.1086 -0.3871 -0.4039
 3422SOL     OW11459   1.578   0.120   6.564 -0.4527  0.1224  0.6062
 3422SOL    HW111460   1.619   0.065   6.498 -0.6199 -0.7914  1.2527
 3422SOL    HW211461   1.536   0.190   6.513 -3.3187 -2.2285 -0.6282
 3423SOL     OW11462   0.184   0.125   1.347 -0.6672  0.7391 -0.7173
 3423SOL    HW111463   0.212   0.216   1.337 -0.0549  0.5042 -1.2188
 3423SOL    HW211464   0.220   0.081   1.270  0.6780 -0.3212  0.4569
 3424SOL     OW11465   3.926   3.493   8.352 -0.2460 -0.3749  0.1910
 3424SOL    HW111466   3.865   3.485   8.278  1.6974 -1.6054 -1.4015
 3424SOL    HW211467   3.957   3.583   8.347 -0.1643 -0.4300 -0.5101
 3425SOL     OW11468   8.382   6.391   2.623 -0.4755  0.2131  0.4887
 3425SOL    HW111469   8.359   6.455   2.556 -0.2324 -0.3113 -0.1006
 3425SOL    HW211470   8.382   6.307   2.578 -0.6026 -0.1881  1.2127
 3426SOL     OW11471   4.927   1.654   6.058 -0.0480 -0.1486 -0.3192
 3426SOL    HW111472   4.879   1.734   6.079  1.8107  1.1727 -0.7711
 3426SOL    HW211473   4.936   1.656   5.963  0.6706 -0.4817 -0.2664
 3427SOL     OW11474   3.733   1.698   5.473 -0.3102 -1.0574  0.0509
 3427SOL    HW111475   3.645   1.672   5.499  0.0253 -0.3802  2.0208
 3427SOL    HW211476   3.732   1.793   5.474  0.3260 -1.0360 -0.3838
 3428SOL     OW11477   1.363   6.245   1.169 -0.1256 -0.1680  0.0753
 3428SOL    HW111478   1.300   6.316   1.176 -1.4070 -1.1972 -0.5424
 3428SOL    HW211479   1.311   6.166   1.184  0.9284 -1.0812 -0.9524
 3429SOL     OW11480   1.165   3.826   3.308 -0.2591 -0.3243 -0.2084
 3429SOL    HW111481   1.164   3.864   3.221  0.6989  0.4194  0.0955
 3429SOL    HW211482   1.191   3.735   3.295  0.0448 -0.1684 -0.6712
 3430SOL     OW11483   7.098   2.974   4.138 -0.4659  0.2426  0.2932
 3430SOL    HW111484   7.189   3.003   4.136 -0.3607 -0.0950 -0.2861
 3430SOL    HW211485   7.091   2.920   4.217 -0.0537 -0.0664  0.1191
 3431SOL     OW11486   7.621   4.784   7.950 -0.2670 -0.3468  0.4825
 3431SOL    HW111487   7.695   4.843   7.961 -0.1640 -0.2985 -0.3762
 3431SOL    HW211488   7.601   4.788   7.856 -1.6622  0.0123  0.7728
 3432SOL     OW11489   6.926   0.979   1.007  0.4017 -1.0581 -0.0896
 3432SOL    HW111490   6.995   0.920   0.974 -0.5969 -0.6799 -3.1196
 3432SOL    HW211491   6.848   0.924   1.010 -0.7413  0.1112 -3.7600
 3433SOL     OW11492   1.983   0.959   1.102 -0.4164 -0.1844 -0.0724
 3433SOL    HW111493   1.997   0.895   1.032 -3.3329 -1.8168  0.6457
 3433SOL    HW211494   1.899   0.933   1.141  1.2416  0.3459  4.3624
 3434SOL     OW11495   7.137   7.645   3.400 -0.0004  0.2517 -0.2785
 3434SOL    HW111496   7.058   7.608   3.440 -0.4470 -0.1192 -1.4663
 3434SOL    HW211497   7.191   7.671   3.475 -0.6610 -0.7076  0.5697
 3435SOL     OW11498   1.956   0.047   7.887 -0.1110 -0.1871  0.6114
 3435SOL    HW111499   1.881   0.032   7.830 -1.4451 -1.3961  2.5661
 3435SOL    HW211500   1.926   0.021   7.974  2.1741  0.5465  1.7005
 3436SOL     OW11501   3.300   3.500   2.534  0.1835 -0.0781 -0.7634
 3436SOL    HW111502   3.322   3.531   2.622  0.9880  0.0247 -0.9933
 3436SOL    HW211503   3.260   3.414   2.548  0.2868 -0.0510 -0.2915
 3437SOL     OW11504   2.880   7.183   3.779  0.1708 -0.9644 -0.0029
 3437SOL    HW111505   2.941   7.252   3.756  0.7879 -0.3408  3.0890
 3437SOL    HW211506   2.829   7.219   3.852 -2.3670 -2.3065 -0.9781
 3438SOL     OW11507   2.379   4.777   2.312 -0.2354 -0.2706  0.1622
 3438SOL    HW111508   2.442   4.731   2.256  0.1468  0.2115  0.1852
 3438SOL    HW211509   2.296   4.770   2.266  0.0631  0.0627 -0.4385
 3439SOL     OW11510   0.840   6.705   2.309 -0.2660 -0.2957 -0.5636
 3439SOL    HW111511   0.839   6.779   2.249 -1.7796  1.5706  1.5694
 3439SOL    HW211512   0.802   6.633   2.260  1.0185  0.3492 -2.6292
 3440SOL     OW11513   4.168   7.214   6.551 -0.3261 -0.1856  0.4657
 3440SOL    HW111514   4.136   7.295   6.512 -0.1726  0.1835  1.0900
 3440SOL    HW211515   4.256   7.203   6.516 -0.4217 -0.1844  0.2270
 3441SOL     OW11516   0.960   5.524   1.060  0.1441 -0.3902  0.2909
 3441SOL    HW111517   0.884   5.574   1.089  0.0155  0.6331 -1.6021
 3441SOL    HW211518   0.926   5.464   0.993  0.7028 -1.3082  0.8020
 3442SOL     OW11519   2.782   7.205   2.921  0.2933 -0.1639  0.4781
 3442SOL    HW111520   2.693   7.233   2.944  0.8706  1.8385  0.5124
 3442SOL    HW211521   2.770   7.122   2.877 -1.3823 -1.1843  2.6331
 3443SOL     OW11522   4.566   5.874   4.611 -0.0563 -0.2229 -0.3766
 3443SOL    HW111523   4.525   5.844   4.693 -0.4019 -0.6945 -0.7164
 3443SOL    HW211524   4.639   5.929   4.639 -0.7948  0.4640  0.2497
 3444SOL     OW11525   6.646   6.948   7.032 -0.2195  0.4616  0.3583
 3444SOL    HW111526   6.723   6.914   7.077 -0.5603  1.5881  1.8865
 3444SOL    HW211527   6.589   6.872   7.021 -0.1291  0.1280  1.9082
 3445SOL     OW11528   3.337   3.738   4.813 -0.2857 -0.4190 -0.1469
 3445SOL    HW111529   3.373   3.650   4.822  1.6588  0.3687  0.3280
 3445SOL    HW211530   3.364   3.783   4.894 -0.8397  0.7287 -0.5828
 3446SOL     OW11531   7.135   4.426   8.342 -0.1338  0.1936 -0.2700
 3446SOL    HW111532   7.132   4.379   8.425  1.8413  0.9866  0.3145
 3446SOL    HW211533   7.125   4.358   8.275  0.2923 -0.7376  0.5905
 3447SOL     OW11534   4.917   8.028   3.236  0.3513 -0.3503  0.3122
 3447SOL    HW111535   4.899   7.973   3.159 -1.1942  2.8396 -1.8368
 3447SOL    HW211536   4.836   8.027   3.286 -0.2801  1.2222 -0.6381
 3448SOL     OW11537   6.999   5.918   7.956  0.4162  0.0939  0.3060
 3448SOL    HW111538   6.937   5.857   7.996 -0.4152  1.2212  0.7777
 3448SOL    HW211539   6.982   5.913   7.862  0.7083 -0.7616  0.2887
 3449SOL     OW11540   2.776   4.243   1.292 -0.1366 -0.6457  0.3817
 3449SOL    HW111541   2.853   4.262   1.346 -0.1917  0.4528  0.0972
 3449SOL    HW211542   2.813   4.217   1.207 -0.0145  2.0790 -0.5048
 3450SOL     OW11543   4.792   6.494   1.194  0.2205 -0.0591  0.4090
 3450SOL    HW111544   4.861   6.436   1.162  0.9344  1.9409 -2.0553
 3450SOL    HW211545   4.777   6.555   1.121 -2.2345  1.2690  1.9073
 3451SOL     OW11546   6.894   8.059   4.283 -0.1930  0.1957 -0.1467
 3451SOL    HW111547   6.943   8.009   4.219  2.2536 -0.3548  1.9857
 3451SOL    HW211548   6.879   8.144   4.241  0.6420 -0.3873 -1.6922
 3452SOL     OW11549   5.428   1.165   6.474  0.0726  0.1533  0.4520
 3452SOL    HW111550   5.369   1.142   6.401  1.0580  1.8173 -0.9382
 3452SOL    HW211551   5.419   1.260   6.482  0.7840  0.1188  1.8319
 3453SOL     OW11552   3.367   5.109   3.205  0.1541  0.0152 -0.2882
 3453SOL    HW111553   3.299   5.145   3.147  0.8641  2.4846  0.2944
 3453SOL    HW211554   3.441   5.092   3.148 -0.1119 -0.3031 -0.5409
 3454SOL     OW11555   4.363   5.026   2.584  0.0901 -0.1684 -0.2339
 3454SOL    HW111556   4.438   5.070   2.623  0.0214  0.8572 -1.2015
 3454SOL    HW211557   4.294   5.034   2.649  0.2834  0.5688 -0.1045
 3455SOL     OW11558   4.717   8.026   5.160 -0.3813 -0.3893  0.0827
 3455SOL    HW111559   4.706   8.120   5.166 -1.2400 -0.5396  1.1238
 3455SOL    HW211560   4.745   8.010   5.070 -2.1237  0.6757 -0.6834
 3456SOL     OW11561   5.985   6.764   3.106 -0.0194 -0.2453 -0.4331
 3456SOL    HW111562   5.944   6.827   3.047  0.4618  1.0585  0.6008
 3456SOL    HW211563   5.943   6.778   3.190  1.3947  0.0071  0.2618
 3457SOL     OW11564   0.238   4.536   3.295 -0.2365  0.5727 -0.6066
 3457SOL    HW111565   0.252   4.623   3.258 -1.3861  0.9947 -0.1181
 3457SOL    HW211566   0.256   4.547   3.389 -0.0587  0.1996 -0.5947
 3458SOL     OW11567   3.848   0.986   6.468  0.4116 -0.6298 -0.0393
 3458SOL    HW111568   3.794   1.059   6.438 -0.0046 -0.7426  0.4204
 3458SOL    HW211569   3.796   0.908   6.448 -0.4700 -0.6602  2.0771
 3459SOL     OW11570   2.088   7.491   8.034 -0.2669  0.1332 -0.0346
 3459SOL    HW111571   2.024   7.429   7.998 -0.1907 -0.2627  0.5035
 3459SOL    HW211572   2.128   7.531   7.956 -0.5780 -0.2222 -0.3841
 3460SOL     OW11573   3.843   4.354   8.015 -0.4584 -0.0216  0.6622
 3460SOL    HW111574   3.926   4.360   8.062  0.4689 -1.5505 -0.6831
 3460SOL    HW211575   3.855   4.408   7.937 -1.0248  0.3666  0.8339
 3461SOL     OW11576   0.804   7.142   7.198 -0.1694  0.3226 -0.4299
 3461SOL    HW111577   0.804   7.103   7.111 -1.3943  0.6953 -0.6197
 3461SOL    HW211578   0.748   7.220   7.189  1.5833  1.7175  0.1197
 3462SOL     OW11579   6.000   7.609   0.116  0.1529 -0.4778 -0.3289
 3462SOL    HW111580   5.922   7.656   0.147 -0.3577 -0.7167 -1.2123
 3462SOL    HW211581   6.069   7.675   0.116  0.1366 -0.4247  1.1181
 3463SOL     OW11582   0.138   6.353   6.503 -0.1440 -0.0641  0.7944
 3463SOL    HW111583   0.086   6.373   6.581  1.7275  0.1918  2.0274
 3463SOL    HW211584   0.104   6.412   6.436 -2.7509 -1.2475  0.9267
 3464SOL     OW11585   6.795   5.608   1.671 -0.0477 -0.0523  0.3505
 3464SOL    HW111586   6.701   5.606   1.691 -0.1810 -0.2970 -0.2526
 3464SOL    HW211587   6.799   5.585   1.578  0.6423 -0.4843  0.4806
 3465SOL     OW11588   7.689   8.513   4.791  0.1012 -0.6398  0.4349
 3465SOL    HW111589   7.617   8.491   4.731 -0.8439  1.3274  0.7772
 3465SOL    HW211590   7.755   8.554   4.735 -0.9295  1.5166  0.7304
 3466SOL     OW11591   6.916   6.828   8.568  0.3301 -0.3482  0.0140
 3466SOL    HW111592   6.829   6.867   8.569  0.2042 -0.5578  1.8461
 3466SOL    HW211593   6.970   6.890   8.520 -0.3177  1.0121  0.9815
 3467SOL     OW11594   3.976   5.787   7.961 -0.5772  0.1956  0.5353
 3467SOL    HW111595   3.957   5.803   7.869 -0.3223  0.5436  0.5433
 3467SOL    HW211596   3.927   5.854   8.008  1.8919  2.1695  0.4769
 3468SOL     OW11597   3.294   5.174   3.807 -0.3791  0.0589 -0.1298
 3468SOL    HW111598   3.206   5.162   3.772 -0.9048  1.8007  0.5090
 3468SOL    HW211599   3.334   5.239   3.749 -0.6004  1.5377  1.3107
 3469SOL     OW11600   0.875   8.395   4.646 -0.4525 -0.6041  0.4645
 3469SOL    HW111601   0.953   8.437   4.683  0.6742  0.2988 -2.5987
 3469SOL    HW211602   0.804   8.456   4.664  0.2164  0.2030  0.4475
 3470SOL     OW11603   7.910   2.464   2.313 -0.6131 -0.3209  0.1427
 3470SOL    HW111604   7.969   2.454   2.388  0.5375  0.0323 -0.6959
 3470SOL    HW211605   7.846   2.529   2.343 -0.2902 -0.3318  0.8933
 3471SOL     OW11606   5.427   2.088   3.554 -0.6205 -0.1603 -0.0892
 3471SOL    HW111607   5.378   2.083   3.472 -0.8069 -1.0659  0.0601
 3471SOL    HW211608   5.449   1.997   3.574  0.1940  0.1330  0.4075
 3472SOL     OW11609   3.044   1.059   3.071 -0.2660  0.3852 -0.1456
 3472SOL    HW111610   3.108   1.130   3.067 -0.0610  0.1593 -1.3375
 3472SOL    HW211611   2.961   1.102   3.091  0.2295  0.6801  1.4309
 3473SOL     OW11612   1.923   7.833   2.540  0.1372  0.2763  0.3678
 3473SOL    HW111613   1.878   7.804   2.460  0.1820  0.5753  0.2341
 3473SOL    HW211614   1.923   7.929   2.534  1.1694  0.2758  0.1542
 3474SOL     OW11615   3.912   3.433   2.616  0.2958  0.6577  0.0360
 3474SOL    HW111616   3.967   3.384   2.555 -1.3025 -1.0920 -0.1013
 3474SOL    HW211617   3.969   3.453   2.690  0.6340 -3.2265  1.0455
 3475SOL     OW11618   1.809   4.566   5.167  0.2037 -0.1435  0.6364
 3475SOL    HW111619   1.792   4.518   5.248  0.0457  0.0836  0.7415
 3475SOL    HW211620   1.750   4.527   5.103  1.1108 -1.0651  0.3379
 3476SOL     OW11621   3.961   4.405   5.217 -0.1498 -0.1302  0.6787
 3476SOL    HW111622   3.922   4.332   5.265 -0.4763 -0.5326 -0.1791
 3476SOL    HW211623   4.020   4.363   5.155 -0.8452  0.2907 -0.2878
 3477SOL     OW11624   0.032   3.791   4.178 -0.4392  0.5936  0.5676
 3477SOL    HW111625   0.058   3.721   4.238  0.6167  0.2989 -0.2061
 3477SOL    HW211626   0.087   3.778   4.101 -0.3237  2.1921  0.3492
 3478SOL     OW11627   5.803   0.301   1.898  0.4099 -1.1381  0.3654
 3478SOL    HW111628   5.812   0.353   1.978 -0.1645 -0.1906 -0.1736
 3478SOL    HW211629   5.856   0.223   1.915  1.2981 -0.3856  1.1856
 3479SOL     OW11630   4.693   0.943   2.410 -0.5057  0.3269  0.6232
 3479SOL    HW111631   4.671   1.008   2.476 -0.4479  1.6875 -0.6504
 3479SOL    HW211632   4.685   0.989   2.327 -1.0480 -1.4533 -0.3738
 3480SOL     OW11633   2.889   0.599   4.621  0.3318  0.0723  0.1199
 3480SOL    HW111634   2.963   0.605   4.681  0.5600 -0.5327 -0.0901
 3480SOL    HW211635   2.910   0.661   4.550  0.1432  0.6576  0.5687
 3481SOL     OW11636   5.709   6.200   2.703  0.4955  0.0862 -0.2494
 3481SOL    HW111637   5.634   6.140   2.704  0.7713 -0.3105  1.9944
 3481SOL    HW211638   5.670   6.288   2.704  0.0767 -0.1002 -0.1380
 3482SOL     OW11639   4.639   7.279   5.795  0.6232 -0.0110  0.3620
 3482SOL    HW111640   4.732   7.294   5.780  0.5014  0.8503  0.4219
 3482SOL    HW211641   4.613   7.347   5.857 -0.6327  1.5018 -1.6937
 3483SOL     OW11642   7.881   3.619   5.527 -0.0692 -0.0548  0.7295
 3483SOL    HW111643   7.806   3.561   5.511 -1.6779  1.8123  1.0946
 3483SOL    HW211644   7.920   3.632   5.441 -0.5461 -0.5400  0.4317
 3484SOL     OW11645   5.471   6.937   3.387 -0.3388 -0.0094 -0.1318
 3484SOL    HW111646   5.561   6.963   3.405 -0.6814 -0.5216  2.8614
 3484SOL    HW211647   5.419   7.016   3.402 -0.5606 -0.2270  0.2788
 3485SOL     OW11648   5.601   0.406   4.334  0.1091 -0.0273  0.2617
 3485SOL    HW111649   5.511   0.378   4.353 -0.8492  1.5156 -1.7486
 3485SOL    HW211650   5.638   0.334   4.283 -0.6049  0.1216 -0.4747
 3486SOL     OW11651   7.241   7.031   6.698  0.5819  0.0629 -0.1208
 3486SOL    HW111652   7.311   7.066   6.643  0.7112  1.2925  0.8002
 3486SOL    HW211653   7.276   6.948   6.730  0.6801 -0.4654 -1.5133
 3487SOL     OW11654   7.458   4.696   4.177  0.2446  0.5665  0.4613
 3487SOL    HW111655   7.423   4.632   4.239 -0.9621  1.2221  0.4963
 3487SOL    HW211656   7.552   4.698   4.195  0.4923 -1.8399 -0.1677
 3488SOL     OW11657   1.557   1.484   2.186  1.0068 -0.1028  0.3491
 3488SOL    HW111658   1.533   1.545   2.116 -0.9357 -1.8130 -0.5603
 3488SOL    HW211659   1.549   1.397   2.147 -0.0522 -1.1205  2.6383
 3489SOL     OW11660   0.145   1.581   7.143  0.0253 -0.0959  0.0129
 3489SOL    HW111661   0.127   1.534   7.225  1.1701 -0.5494  0.0290
 3489SOL    HW211662   0.218   1.639   7.165 -0.4794  0.7003 -0.3771
 3490SOL     OW11663   6.369   0.962   6.549 -0.1875 -0.0633  0.0391
 3490SOL    HW111664   6.381   1.053   6.523 -1.7439  0.3218  0.6001
 3490SOL    HW211665   6.443   0.916   6.509 -0.4798  1.1035 -1.9460
 3491SOL     OW11666   8.025   1.980   5.750 -0.1980 -0.2055 -0.1748
 3491SOL    HW111667   8.044   2.048   5.815 -0.0771  0.0091 -0.4340
 3491SOL    HW211668   8.082   1.907   5.774  2.2106  0.9908 -1.8913
 3492SOL     OW11669   6.915   5.387   1.429  0.1393  0.3639 -0.6647
 3492SOL    HW111670   6.855   5.461   1.421  0.3636  0.5126 -1.0499
 3492SOL    HW211671   6.899   5.336   1.349  0.0761  0.0653 -0.4607
 3493SOL     OW11672   7.317   5.391   4.947  0.8059  0.6463 -0.5901
 3493SOL    HW111673   7.396   5.349   4.912  0.3297  0.4366 -1.4379
 3493SOL    HW211674   7.246   5.335   4.917  0.2794  1.2178 -0.4110
 3494SOL     OW11675   0.864   1.750   4.935  0.0650 -0.1196 -1.1380
 3494SOL    HW111676   0.900   1.838   4.946  0.4892 -0.5086  1.1368
 3494SOL    HW211677   0.779   1.753   4.978  0.9033 -1.2410  0.7939
 3495SOL     OW11678   7.637   3.398   6.749  0.3421  0.4627 -0.2650
 3495SOL    HW111679   7.552   3.362   6.721  0.0665  0.4524  0.5760
 3495SOL    HW211680   7.700   3.355   6.691 -0.0058 -1.1652  0.4922
 3496SOL     OW11681   7.275   3.062   1.141 -0.0942  0.8434 -0.4412
 3496SOL    HW111682   7.240   3.109   1.065 -0.6149  0.0858 -0.6765
 3496SOL    HW211683   7.209   3.076   1.209 -0.5944 -0.0942 -0.7129
 3497SOL     OW11684   0.258   0.581   6.671 -0.5328 -0.0368 -0.2127
 3497SOL    HW111685   0.238   0.675   6.676  0.2969  0.0948  1.2675
 3497SOL    HW211686   0.185   0.543   6.622 -0.8797  1.3706 -0.8362
 3498SOL     OW11687   0.127   7.166   1.517  0.1044  0.1787  0.3680
 3498SOL    HW111688   0.097   7.219   1.443 -0.9572 -1.1435 -0.1871
 3498SOL    HW211689   0.156   7.084   1.478  0.1382 -0.3003  1.3599
 3499SOL     OW11690   2.273   7.776   7.127 -0.1537 -0.3274  0.5136
 3499SOL    HW111691   2.206   7.793   7.061  0.1517  0.7655  0.4556
 3499SOL    HW211692   2.229   7.793   7.211 -0.2923 -0.8456  0.5501
 3500SOL     OW11693   1.408   2.017   6.100  0.1769  1.1029  0.0485
 3500SOL    HW111694   1.500   2.018   6.125  0.8826 -0.6151 -2.1163
 3500SOL    HW211695   1.405   1.964   6.020 -2.8026  0.4839  0.4222
 3501SOL     OW11696   7.543   4.693   1.782  0.9311  0.2892 -0.0473
 3501SOL    HW111697   7.487   4.730   1.713 -0.6547  0.0924  1.0791
 3501SOL    HW211698   7.537   4.756   1.853  0.2519 -0.8697  0.9518
 3502SOL     OW11699   4.865   4.180   4.773 -0.2325 -0.2188  0.1492
 3502SOL    HW111700   4.876   4.085   4.765 -0.3668 -0.2915  0.7479
 3502SOL    HW211701   4.947   4.211   4.811  0.2244  0.0540 -1.0286
 3503SOL     OW11702   6.713   3.988   8.332  0.1475  0.4820 -0.0323
 3503SOL    HW111703   6.679   4.013   8.418 -2.3176  0.8204 -1.0311
 3503SOL    HW211704   6.644   3.934   8.294  1.2827  0.1628 -1.7539
 3504SOL     OW11705   4.907   3.325   3.310 -0.1189 -0.1839  0.1951
 3504SOL    HW111706   4.900   3.300   3.218 -0.8701 -0.6067  0.3590
 3504SOL    HW211707   4.932   3.418   3.307 -0.7393 -0.0273 -0.4421
 3505SOL     OW11708   8.185   3.739   3.096 -0.2068  0.3620 -0.2867
 3505SOL    HW111709   8.218   3.687   3.023  1.6090  1.4757 -0.3192
 3505SOL    HW211710   8.113   3.687   3.133  0.2938 -1.2327 -1.4907
 3506SOL     OW11711   7.033   7.823   1.086  0.0282 -0.1568 -0.0164
 3506SOL    HW111712   7.092   7.769   1.138  1.3608  2.0541  0.9136
 3506SOL    HW211713   7.032   7.780   1.000  0.3395 -2.0883  0.8868
 3507SOL     OW11714   6.443   6.946   4.222  0.5218  0.6190 -0.3667
 3507SOL    HW111715   6.476   6.957   4.133 -0.8375  3.0338 -0.6415
 3507SOL    HW211716   6.522   6.950   4.277  1.4184 -1.3178 -1.4216
 3508SOL     OW11717   3.327   4.319   2.812 -0.3278  0.3192 -0.4288
 3508SOL    HW111718   3.349   4.284   2.898 -1.8957  0.8316  0.2315
 3508SOL    HW211719   3.315   4.242   2.757  2.2199  0.0021 -0.6696
 3509SOL     OW11720   8.523   5.228   8.002  0.2518 -0.3925  0.5754
 3509SOL    HW111721   8.540   5.319   8.028 -0.7218  0.1741 -0.6571
 3509SOL    HW211722   8.504   5.183   8.084 -0.6064  0.8476  1.1028
 3510SOL     OW11723   4.405   3.059   4.635  0.1382 -0.2723 -0.8884
 3510SOL    HW111724   4.368   2.975   4.663 -0.9748  0.5937  0.3844
 3510SOL    HW211725   4.340   3.093   4.573 -1.0825  1.0321  0.9839
 3511SOL     OW11726   4.170   3.687   4.731  0.5251  0.0044  0.0928
 3511SOL    HW111727   4.197   3.664   4.820  0.0049  0.9580  0.5179
 3511SOL    HW211728   4.110   3.618   4.705  1.2015 -0.6402  0.2152
 3512SOL     OW11729   2.339   4.780   2.692  0.4240 -0.4717  0.5728
 3512SOL    HW111730   2.418   4.802   2.643 -0.5086  0.4548 -0.5838
 3512SOL    HW211731   2.357   4.813   2.780  0.4422  1.9813 -0.2539
 3513SOL     OW11732   6.468   2.044   7.979  0.6544 -0.1710  0.0958
 3513SOL    HW111733   6.534   2.102   8.017  0.9053  0.3151 -1.0297
 3513SOL    HW211734   6.384   2.083   8.002  0.6220 -1.6880  2.9824
 3514SOL     OW11735   2.951   2.901   4.536 -0.6642 -0.0985 -0.0627
 3514SOL    HW111736   2.951   2.807   4.522 -1.1741 -0.5235  2.4557
 3514SOL    HW211737   2.862   2.929   4.514 -0.5848 -0.2106 -0.5540
 3515SOL     OW11738   3.622   7.026   7.610 -0.6429 -0.3929  0.0845
 3515SOL    HW111739   3.597   7.116   7.589 -1.0498 -0.2219  1.2505
 3515SOL    HW211740   3.595   6.975   7.533 -0.2072  0.5001 -0.6767
 3516SOL     OW11741   0.471   5.549   4.558  0.1233 -0.1549 -0.4957
 3516SOL    HW111742   0.533   5.525   4.626  0.0945 -0.2280 -0.4956
 3516SOL    HW211743   0.479   5.480   4.492  0.9368  0.4831 -1.0846
 3517SOL     OW11744   8.254   0.057   3.292 -0.2549 -0.1033  0.0528
 3517SOL    HW111745   8.231   0.140   3.251 -1.4359  0.0561  1.0086
 3517SOL    HW211746   8.186   0.042   3.357 -0.6604 -2.3113 -0.7752
 3518SOL     OW11747   1.612   4.951   0.665 -0.2121  0.3643  0.3389
 3518SOL    HW111748   1.691   5.002   0.648  0.9019 -1.7601 -1.2027
 3518SOL    HW211749   1.543   4.996   0.617  1.1885 -0.6731 -2.9173
 3519SOL     OW11750   7.747   4.960   3.088 -0.1417  0.2056 -0.2338
 3519SOL    HW111751   7.729   4.869   3.063 -0.6492  0.4814 -0.8954
 3519SOL    HW211752   7.838   4.974   3.061  0.3898 -0.5075  1.0886
 3520SOL     OW11753   0.271   4.488   8.519 -0.6054 -0.1527  0.4678
 3520SOL    HW111754   0.320   4.490   8.437 -0.0762 -0.3517  0.7724
 3520SOL    HW211755   0.261   4.580   8.544  0.2271 -0.1344  0.7599
 3521SOL     OW11756   4.670   7.499   8.462  0.0632 -0.2420 -0.4727
 3521SOL    HW111757   4.628   7.512   8.547 -0.1590  0.3904 -0.6683
 3521SOL    HW211758   4.758   7.533   8.473  0.0470 -0.1970 -0.4788
 3522SOL     OW11759   5.642   0.742   4.600  0.2200 -0.3322 -0.4166
 3522SOL    HW111760   5.550   0.761   4.622  0.5895  0.9865  0.1130
 3522SOL    HW211761   5.692   0.804   4.653  1.3980 -0.6669 -1.1065
 3523SOL     OW11762   3.739   4.937   4.499 -0.2938 -0.7007 -0.2924
 3523SOL    HW111763   3.745   4.910   4.591 -1.4906 -1.3464 -0.3751
 3523SOL    HW211764   3.644   4.944   4.483 -0.0977 -0.5408 -1.4624
 3524SOL     OW11765   3.512   0.152   6.427 -0.4985 -0.1439 -0.4700
 3524SOL    HW111766   3.549   0.155   6.516 -1.2385 -0.5362 -0.1446
 3524SOL    HW211767   3.587   0.133   6.371  0.1270  0.8920 -0.0294
 3525SOL     OW11768   7.049   6.203   1.417 -0.2491 -0.2806  0.3802
 3525SOL    HW111769   6.956   6.181   1.417 -0.7806  1.7306  1.6130
 3525SOL    HW211770   7.093   6.121   1.437 -1.7940 -1.1592  0.3147
 3526SOL     OW11771   4.429   2.946   0.931 -0.4146  0.0526  0.2402
 3526SOL    HW111772   4.358   3.004   0.957 -1.0822 -0.6611  0.0399
 3526SOL    HW211773   4.399   2.906   0.850  1.2600  1.5861 -1.2483
 3527SOL     OW11774   5.531   3.002   1.439  0.1090 -0.3826  0.3081
 3527SOL    HW111775   5.620   2.976   1.462  0.3097 -0.2816 -0.3329
 3527SOL    HW211776   5.513   2.958   1.356 -0.7039 -0.9577  0.7705
 3528SOL     OW11777   8.438   3.603   2.165 -0.1699 -0.0097  0.3649
 3528SOL    HW111778   8.416   3.664   2.236 -1.9700 -0.5487  0.3258
 3528SOL    HW211779   8.482   3.530   2.210  2.9520  1.6668  0.2859
 3529SOL     OW11780   6.860   7.197   8.176 -0.3876  0.1616  0.0082
 3529SOL    HW111781   6.930   7.131   8.178 -0.6696 -0.1392  1.2177
 3529SOL    HW211782   6.893   7.265   8.117  0.3447 -0.5919 -0.4838
 3530SOL     OW11783   2.582   7.708   0.538  0.2110  0.8898 -0.5037
 3530SOL    HW111784   2.631   7.626   0.545 -1.9592 -0.4662 -0.2763
 3530SOL    HW211785   2.538   7.702   0.454 -1.0885  1.1482  0.1373
 3531SOL     OW11786   6.496   1.318   4.603 -0.3887 -0.3665  0.0605
 3531SOL    HW111787   6.418   1.365   4.631 -0.4192 -1.0731  1.2199
 3531SOL    HW211788   6.563   1.386   4.595 -1.1421  0.2656 -1.0947
 3532SOL     OW11789   0.665   3.230   3.037  0.1120  0.1816 -0.3931
 3532SOL    HW111790   0.631   3.272   3.116  0.4202  2.1358 -1.2321
 3532SOL    HW211791   0.703   3.148   3.068  0.1848  0.8778  1.4858
 3533SOL     OW11792   1.241   4.002   3.065 -0.1598  0.1578  0.4653
 3533SOL    HW111793   1.154   3.995   3.027 -0.4599  2.0660  0.6649
 3533SOL    HW211794   1.300   3.971   2.997 -0.9030  0.3031 -0.2611
 3534SOL     OW11795   2.623   7.529   0.284 -0.0326 -0.3755  0.0864
 3534SOL    HW111796   2.598   7.437   0.290  1.4424 -0.8118 -0.1197
 3534SOL    HW211797   2.567   7.565   0.215 -0.0078 -1.3455 -0.4565
 3535SOL     OW11798   0.408   2.521   6.595  0.1782 -0.4465  0.4864
 3535SOL    HW111799   0.464   2.461   6.546 -0.2115 -1.3951  1.1804
 3535SOL    HW211800   0.398   2.480   6.681 -0.5826  0.3125  0.7746
 3536SOL     OW11801   8.226   0.989   3.485  0.2604 -0.5599  0.2785
 3536SOL    HW111802   8.308   0.996   3.436 -0.1187 -1.7447 -0.5707
 3536SOL    HW211803   8.183   0.911   3.449 -1.4391  0.2733  0.4204
 3537SOL     OW11804   7.844   7.173   0.183  0.1188 -0.1985  0.2021
 3537SOL    HW111805   7.868   7.241   0.121  0.7686 -0.9391 -0.3751
 3537SOL    HW211806   7.781   7.215   0.242  0.8075  1.0125  0.1039
 3538SOL     OW11807   6.052   2.480   4.117 -0.4854 -0.1831 -0.0075
 3538SOL    HW111808   6.074   2.435   4.035 -1.2601  0.8912 -0.8459
 3538SOL    HW211809   6.101   2.433   4.185 -0.8859 -1.9523 -0.8943
 3539SOL     OW11810   0.604   4.978   4.550 -1.1630  0.3723 -0.5734
 3539SOL    HW111811   0.691   4.944   4.531 -1.1558 -0.0856  0.2366
 3539SOL    HW211812   0.549   4.901   4.558 -1.3100  0.5709  0.5048
 3540SOL     OW11813   1.921   1.679   4.534  0.5100 -0.4273 -0.0758
 3540SOL    HW111814   1.989   1.660   4.468  0.2893 -1.2127 -0.0908
 3540SOL    HW211815   1.841   1.690   4.483  0.1864 -1.8129  0.1022
 3541SOL     OW11816   2.424   2.057   3.801 -0.6055 -0.2264 -0.5561
 3541SOL    HW111817   2.519   2.065   3.813 -0.8821  1.1600  1.1810
 3541SOL    HW211818   2.411   2.059   3.706  1.1129 -0.7523 -0.8299
 3542SOL     OW11819   2.991   1.558   0.988 -0.1217 -0.0180 -0.2734
 3542SOL    HW111820   2.967   1.631   1.046 -0.9751 -0.9431  0.5952
 3542SOL    HW211821   2.928   1.489   1.011  2.7961 -2.3284  1.5224
 3543SOL     OW11822   8.281   3.010   6.508  0.3872  0.0992  0.5308
 3543SOL    HW111823   8.354   2.972   6.557  0.6302  0.1644  0.2220
 3543SOL    HW211824   8.220   2.936   6.496  1.2333 -0.4147 -0.7782
 3544SOL     OW11825   0.295   2.132   6.419 -0.2461 -0.0826  0.1686
 3544SOL    HW111826   0.233   2.162   6.485 -0.7624 -0.9104  0.0800
 3544SOL    HW211827   0.252   2.150   6.335  1.1069  2.5106 -0.0560
 3545SOL     OW11828   4.130   7.009   7.956  0.8875  0.4327 -0.4672
 3545SOL    HW111829   4.123   6.940   7.890  0.1930  0.5815 -0.5597
 3545SOL    HW211830   4.135   6.962   8.040 -1.1417  0.2505 -0.3907
 3546SOL     OW11831   1.642   7.538   0.818 -0.1983  0.0181 -0.1695
 3546SOL    HW111832   1.640   7.600   0.891  0.8261 -0.2022  0.0636
 3546SOL    HW211833   1.668   7.590   0.742 -1.4104  0.2775 -0.4289
 3547SOL     OW11834   4.620   3.983   1.072 -0.4160 -0.1081 -0.2523
 3547SOL    HW111835   4.635   4.047   1.141 -3.0108 -0.6823  0.9965
 3547SOL    HW211836   4.670   3.906   1.099 -0.4841  0.0693  0.4052
 3548SOL     OW11837   8.056   3.817   0.106  0.2989 -0.2497 -0.6054
 3548SOL    HW111838   8.010   3.757   0.048  1.8588 -0.8934 -1.2268
 3548SOL    HW211839   8.045   3.779   0.193 -1.4869  0.3645 -0.5149
 3549SOL     OW11840   0.598   6.095   7.053 -0.2210  0.4738  0.0395
 3549SOL    HW111841   0.561   6.091   6.965 -0.0224  0.8580 -0.0644
 3549SOL    HW211842   0.684   6.136   7.042 -0.2347  0.6190  0.4221
 3550SOL     OW11843   3.446   7.172   6.752  0.2270  0.4420  0.3192
 3550SOL    HW111844   3.359   7.152   6.719  0.3326  2.0667 -1.1303
 3550SOL    HW211845   3.502   7.168   6.674  1.6778 -1.5539  1.3791
 3551SOL     OW11846   5.000   6.760   8.488  0.1171  0.2820  0.1813
 3551SOL    HW111847   5.068   6.715   8.537  0.1763 -1.0397 -1.0495
 3551SOL    HW211848   4.946   6.690   8.451 -1.1426  1.2772  0.0607
 3552SOL     OW11849   6.800   7.979   5.077  0.1682  0.6886 -0.1379
 3552SOL    HW111850   6.728   8.017   5.026  0.6592  2.1800  0.2353
 3552SOL    HW211851   6.775   7.994   5.168  0.1274 -0.3966  0.0450
 3553SOL     OW11852   8.395   6.485   7.866 -0.1034  0.1248 -0.0831
 3553SOL    HW111853   8.323   6.522   7.918 -0.7381  1.3729 -1.7706
 3553SOL    HW211854   8.352   6.430   7.801  0.3985  1.1784 -1.3530
 3554SOL     OW11855   5.966   1.253   3.208 -0.3052  0.1022  0.1218
 3554SOL    HW111856   5.968   1.221   3.117 -0.2920 -1.1733  0.5516
 3554SOL    HW211857   6.036   1.318   3.212  1.0418 -1.2553 -0.3010
 3555SOL     OW11858   6.390   5.262   2.529 -0.2432 -0.1981  0.5625
 3555SOL    HW111859   6.296   5.253   2.514 -0.0667 -1.2646  0.0534
 3555SOL    HW211860   6.419   5.177   2.561  0.4548  0.2995  1.3149
 3556SOL     OW11861   3.000   7.815   2.836  0.2630 -0.2136  0.0998
 3556SOL    HW111862   2.979   7.884   2.773  0.5636  1.8018  2.0744
 3556SOL    HW211863   3.036   7.862   2.912  0.7358 -2.5843  1.4373
 3557SOL     OW11864   6.913   2.074   7.837 -0.0439  0.2596  0.3848
 3557SOL    HW111865   6.855   2.127   7.783 -0.3944 -2.2010 -1.8359
 3557SOL    HW211866   6.867   2.065   7.920 -1.5600  0.6273 -0.3861
 3558SOL     OW11867   3.468   7.148   5.213 -0.0449 -0.0501 -0.1286
 3558SOL    HW111868   3.550   7.198   5.204  0.5559 -0.9853 -0.0011
 3558SOL    HW211869   3.492   7.072   5.266 -0.4984 -1.4338 -1.8271
 3559SOL     OW11870   0.196   7.031   3.540 -0.2465 -0.2003 -0.2561
 3559SOL    HW111871   0.112   7.068   3.566 -0.1070  0.9082 -1.2682
 3559SOL    HW211872   0.183   6.937   3.543 -1.7447 -0.0475 -1.0288
 3560SOL     OW11873   3.064   4.526   7.854 -0.1613 -0.3103 -0.6294
 3560SOL    HW111874   3.045   4.605   7.804 -0.9845 -0.5253 -0.6700
 3560SOL    HW211875   2.987   4.515   7.910  1.2777  0.6739  1.6757
 3561SOL     OW11876   5.953   8.231   5.428  0.5555 -0.6111  0.5173
 3561SOL    HW111877   5.996   8.215   5.512  1.2790 -0.7597  0.1268
 3561SOL    HW211878   5.934   8.324   5.428 -0.7362 -0.8501  1.4385
 3562SOL     OW11879   5.755   0.500   1.048  0.1722 -0.2417 -0.0803
 3562SOL    HW111880   5.828   0.450   1.012 -0.6516 -0.7273 -1.1388
 3562SOL    HW211881   5.791   0.587   1.065  1.2951 -0.8127  0.5757
 3563SOL     OW11882   0.940   3.006   7.242  0.1791  0.4930 -0.6219
 3563SOL    HW111883   1.007   2.937   7.243 -1.1363 -0.8525  1.1713
 3563SOL    HW211884   0.872   2.971   7.184 -0.8222 -0.0913  0.8723
 3564SOL     OW11885   4.137   3.503   0.749  0.0011  0.2366 -0.1389
 3564SOL    HW111886   4.219   3.472   0.787  0.6494 -0.9004 -2.3185
 3564SOL    HW211887   4.076   3.430   0.760 -0.4398  0.6968  0.5565
 3565SOL     OW11888   5.895   5.616   4.677  0.2102  0.2825 -0.3265
 3565SOL    HW111889   5.965   5.680   4.685 -0.7968  1.3807 -0.0311
 3565SOL    HW211890   5.897   5.568   4.760  1.1346 -0.2662 -0.6519
 3566SOL     OW11891   3.490   4.805   6.533 -0.4456 -0.2319  0.1012
 3566SOL    HW111892   3.491   4.802   6.629 -1.0149  2.2974  0.2433
 3566SOL    HW211893   3.520   4.893   6.512 -0.6350 -0.6503 -2.0682
 3567SOL     OW11894   8.448   4.479   5.502  0.5383 -0.6497 -0.2982
 3567SOL    HW111895   8.381   4.427   5.548 -0.7028 -0.8339 -2.2028
 3567SOL    HW211896   8.422   4.475   5.410  0.8391  2.7161 -0.6282
 3568SOL     OW11897   8.473   6.088   3.130  0.0727 -0.5025  0.3181
 3568SOL    HW111898   8.490   6.115   3.220 -1.3521 -1.9042  1.0524
 3568SOL    HW211899   8.534   6.017   3.114  1.1683  0.5317 -0.2884
 3569SOL     OW11900   2.798   4.904   5.473  0.4771 -0.6659  0.1398
 3569SOL    HW111901   2.838   4.989   5.494  0.3093 -0.5552  0.0149
 3569SOL    HW211902   2.793   4.903   5.377  0.7554 -0.9451  0.1302
 3570SOL     OW11903   0.008   2.358   5.878  0.4045 -0.3607 -0.4919
 3570SOL    HW111904   0.067   2.297   5.922 -0.6951 -0.3776  1.0087
 3570SOL    HW211905   0.039   2.445   5.906 -0.9664 -0.3947  1.3010
 3571SOL     OW11906   1.904   0.978   2.599 -0.6611 -0.3567 -0.1164
 3571SOL    HW111907   1.883   0.943   2.686 -1.7703  0.7187  0.0864
 3571SOL    HW211908   1.926   1.070   2.616  0.4603 -0.4764 -0.8288
 3572SOL     OW11909   3.526   3.838   7.075  0.2397 -0.2008  0.3948
 3572SOL    HW111910   3.478   3.902   7.021  0.6191 -0.5288 -0.3476
 3572SOL    HW211911   3.589   3.891   7.124  1.9022 -0.1456 -1.6615
 3573SOL     OW11912   3.768   3.750   0.159  0.4961  0.0463 -0.6804
 3573SOL    HW111913   3.841   3.802   0.194 -0.4188  1.0019 -0.1080
 3573SOL    HW211914   3.774   3.762   0.064  2.5236 -1.9099 -0.8692
 3574SOL     OW11915   5.983   0.756   4.535 -0.0883  1.1681 -0.5382
 3574SOL    HW111916   5.984   0.684   4.598 -1.0690  1.6008 -0.0065
 3574SOL    HW211917   6.045   0.729   4.467 -0.0075  0.0899 -0.0597
 3575SOL     OW11918   3.143   0.325   4.813 -0.2770 -0.0664 -0.5171
 3575SOL    HW111919   3.196   0.312   4.735  1.5308 -0.3626  0.6895
 3575SOL    HW211920   3.186   0.271   4.880  0.1154  2.4893  1.4497
 3576SOL     OW11921   3.750   1.969   8.375 -0.0906  0.0805 -0.3127
 3576SOL    HW111922   3.777   1.932   8.458  0.7221  0.9816 -0.1638
 3576SOL    HW211923   3.822   2.026   8.348 -2.3420  3.9031  0.8911
 3577SOL     OW11924   5.198   2.010   4.161 -0.2887 -0.3985  0.5302
 3577SOL    HW111925   5.197   2.074   4.090  0.5337 -0.2563  0.6434
 3577SOL    HW211926   5.183   1.926   4.117 -0.9297 -0.1876  0.3301
 3578SOL     OW11927   6.765   5.886   0.548  0.0452 -0.4388  0.0746
 3578SOL    HW111928   6.858   5.903   0.531 -0.2279  0.3474 -0.6549
 3578SOL    HW211929   6.755   5.792   0.533  0.7678 -0.5732  0.3787
 3579SOL     OW11930   0.881   8.412   5.014  0.0090 -0.7007 -1.4180
 3579SOL    HW111931   0.801   8.406   5.066  0.6288 -0.2829 -0.3823
 3579SOL    HW211932   0.941   8.464   5.067  1.9783 -3.3404 -0.8347
 3580SOL     OW11933   4.477   6.803   2.412 -0.1151 -0.2958 -0.0274
 3580SOL    HW111934   4.406   6.764   2.464  0.8521 -0.5707  1.1300
 3580SOL    HW211935   4.490   6.890   2.451 -0.5663  0.2199 -0.9820
 3581SOL     OW11936   3.362   4.635   5.105 -0.3705  0.1795  0.3590
 3581SOL    HW111937   3.373   4.540   5.101 -0.2858  0.2327 -1.8689
 3581SOL    HW211938   3.403   4.661   5.188  0.2422 -1.6365  0.6576
 3582SOL     OW11939   3.939   3.545   5.032  0.7325  0.0305  0.2330
 3582SOL    HW111940   3.902   3.593   4.958  0.5720 -0.9012 -0.3224
 3582SOL    HW211941   4.029   3.525   5.005  0.2580 -1.5215 -0.3637
 3583SOL     OW11942   0.945   8.101   4.159 -0.2948 -0.4719  0.5720
 3583SOL    HW111943   0.874   8.051   4.120 -0.6399 -1.2371  2.0652
 3583SOL    HW211944   0.936   8.189   4.124  0.8859 -1.5650 -2.8773
 3584SOL     OW11945   5.119   0.395   4.350 -0.4019 -0.1018 -0.3946
 3584SOL    HW111946   5.073   0.391   4.434 -0.1807  1.2546 -0.1945
 3584SOL    HW211947   5.049   0.392   4.285 -0.5432 -1.8570 -0.2218
 3585SOL     OW11948   4.887   5.390   4.450 -0.4471 -0.3345 -0.1504
 3585SOL    HW111949   4.907   5.469   4.500 -1.5876 -0.2656  0.2202
 3585SOL    HW211950   4.815   5.416   4.392  0.0749 -0.7370 -1.0012
 3586SOL     OW11951   2.143   0.985   4.095 -0.0493  0.0982 -0.0668
 3586SOL    HW111952   2.108   1.034   4.170  1.4099 -1.2169  1.5544
 3586SOL    HW211953   2.226   1.028   4.075 -0.6892  0.7952 -1.3525
 3587SOL     OW11954   1.599   0.134   5.712 -0.0980  0.2104  0.5864
 3587SOL    HW111955   1.507   0.160   5.715 -0.8736 -1.5463 -2.7396
 3587SOL    HW211956   1.623   0.143   5.619  3.2564  0.9728  1.4044
 3588SOL     OW11957   1.524   5.814   2.641 -0.3571  0.1698  0.1954
 3588SOL    HW111958   1.604   5.805   2.693  1.0080  0.4257 -1.7393
 3588SOL    HW211959   1.456   5.837   2.704  1.4401  1.5925  1.7161
 3589SOL     OW11960   1.783   3.928   3.849 -0.0677  0.5666  0.4592
 3589SOL    HW111961   1.779   3.902   3.756 -0.1697  1.9086  0.0696
 3589SOL    HW211962   1.869   3.969   3.858  0.5072 -0.7635  1.3144
 3590SOL     OW11963   1.954   4.526   3.487 -0.3379 -0.3689  0.2995
 3590SOL    HW111964   2.007   4.533   3.567  0.3326 -1.2810 -0.0424
 3590SOL    HW211965   2.019   4.529   3.416 -0.9008  0.1117 -0.2050
 3591SOL     OW11966   4.733   2.156   1.287 -0.1739 -0.4588  0.5777
 3591SOL    HW111967   4.731   2.113   1.373  1.3673  2.0655  2.0018
 3591SOL    HW211968   4.815   2.127   1.248  0.8412  0.9860  1.5176
 3592SOL     OW11969   5.324   3.766   7.191 -0.1838  0.2609  0.3359
 3592SOL    HW111970   5.332   3.699   7.123  1.4562 -0.5130  1.2394
 3592SOL    HW211971   5.342   3.849   7.146 -2.3677  0.1847 -0.8214
 3593SOL     OW11972   1.627   5.658   8.139 -0.4544  0.0459 -0.0351
 3593SOL    HW111973   1.720   5.649   8.159 -0.4221 -0.7726 -0.4994
 3593SOL    HW211974   1.584   5.653   8.224 -0.1690 -1.1045  0.0611
 3594SOL     OW11975   5.322   5.862   1.053 -0.2375 -0.6972  0.8800
 3594SOL    HW111976   5.377   5.912   0.993 -0.6451 -1.5042 -0.2078
 3594SOL    HW211977   5.319   5.915   1.132  1.1115 -0.0599  0.5426
 3595SOL     OW11978   1.418   0.753   3.398 -0.1118  0.4013  0.1164
 3595SOL    HW111979   1.423   0.734   3.491  0.8671 -0.1936 -0.0474
 3595SOL    HW211980   1.492   0.811   3.381  1.4304 -1.7339 -0.7949
 3596SOL     OW11981   1.192   2.388   7.859 -0.3092  0.3305 -0.3038
 3596SOL    HW111982   1.133   2.354   7.926  1.9784 -1.7047  0.8386
 3596SOL    HW211983   1.159   2.475   7.840 -2.1896  0.2289  2.0511
 3597SOL     OW11984   4.692   2.365   0.537 -0.3291  0.3921  0.5406
 3597SOL    HW111985   4.714   2.385   0.628 -1.8696  0.1383  0.9881
 3597SOL    HW211986   4.666   2.450   0.500 -2.0871  0.1078  1.0536
 3598SOL     OW11987   5.135   3.886   8.218  0.1867 -0.3350  0.0509
 3598SOL    HW111988   5.160   3.952   8.283 -0.8681  0.3448 -0.1921
 3598SOL    HW211989   5.075   3.828   8.265  0.5614 -0.7013  0.0742
 3599SOL     OW11990   7.546   6.039   0.701  0.6189  0.3096  0.2651
 3599SOL    HW111991   7.595   5.978   0.757 -0.3472  0.1086  0.9143
 3599SOL    HW211992   7.520   6.110   0.759 -1.2025 -0.3558  0.3423
 3600SOL     OW11993   0.329   8.030   3.472 -0.0859  0.5630 -0.1125
 3600SOL    HW111994   0.287   8.107   3.433 -1.5663  0.1604  0.6132
 3600SOL    HW211995   0.270   8.004   3.543 -0.2801 -1.9564 -1.0958
 3601SOL     OW11996   1.703   6.259   4.754  0.7215  0.3963 -0.3291
 3601SOL    HW111997   1.698   6.180   4.700  2.0238  0.7959 -1.0609
 3601SOL    HW211998   1.705   6.226   4.844  2.9839 -0.5574 -0.6576
 3602SOL     OW11999   7.440   2.964   5.179  0.5511 -0.4491  0.1866
 3602SOL    HW112000   7.472   2.911   5.251  0.6612 -1.0908 -0.3223
 3602SOL    HW212001   7.487   2.931   5.102 -0.4556 -0.6069 -0.3828
 3603SOL     OW12002   0.393   1.153   7.283 -0.3571 -0.3363 -0.3485
 3603SOL    HW112003   0.468   1.213   7.289 -0.5195 -0.1998  0.6252
 3603SOL    HW212004   0.349   1.178   7.202  0.3179 -0.0193 -0.6283
 3604SOL     OW12005   4.121   1.208   7.942  0.1956 -0.2480  0.0779
 3604SOL    HW112006   4.100   1.128   7.991  1.1922 -0.2197  0.5885
 3604SOL    HW212007   4.103   1.279   8.003 -0.9379 -0.0562 -0.4654
 3605SOL     OW12008   1.250   8.300   4.391  0.0459 -0.2262 -0.4033
 3605SOL    HW112009   1.222   8.389   4.410  0.3979  0.0275 -1.0279
 3605SOL    HW212010   1.257   8.297   4.295 -1.8117 -1.4849 -0.5676
 3606SOL     OW12011   0.972   1.901   0.166 -0.2292 -0.5898  0.1783
 3606SOL    HW112012   1.005   1.983   0.130  0.2104 -0.7369  0.2403
 3606SOL    HW212013   0.984   1.909   0.261 -0.1456 -0.7426  0.1820
 3607SOL     OW12014   6.234   8.039   5.388  0.3056  0.3231  0.5336
 3607SOL    HW112015   6.184   7.972   5.340  1.3987 -0.5568  0.5822
 3607SOL    HW212016   6.180   8.058   5.465 -0.4208  0.1138  0.0828
 3608SOL     OW12017   4.769   8.351   6.878  0.1569  0.0244 -0.0521
 3608SOL    HW112018   4.680   8.347   6.914  0.4912  3.5819  1.6548
 3608SOL    HW212019   4.758   8.327   6.786 -2.0918 -2.0147  0.6407
 3609SOL     OW12020   1.038   5.902   1.996 -0.0082 -0.7518 -0.2366
 3609SOL    HW112021   1.083   5.946   2.067 -1.0086  0.9003 -0.5539
 3609SOL    HW212022   1.014   5.973   1.936 -0.3841 -1.9303 -1.5318
 3610SOL     OW12023   3.107   3.404   2.217 -0.5618 -0.3501  0.4451
 3610SOL    HW112024   3.091   3.494   2.246  0.7361 -0.7881  2.7482
 3610SOL    HW212025   3.150   3.413   2.132  0.3561  1.2331  1.0500
 3611SOL     OW12026   0.196   1.033   5.708 -0.4804  0.0109  0.1742
 3611SOL    HW112027   0.281   1.023   5.752 -0.5180  1.7211  0.6791
 3611SOL    HW212028   0.192   0.958   5.648  0.8695 -0.7372  0.9533
 3612SOL     OW12029   0.475   6.921   7.398 -0.3902  0.3961 -0.0459
 3612SOL    HW112030   0.489   6.884   7.311 -1.1330 -1.1725  0.4554
 3612SOL    HW212031   0.522   7.004   7.397 -1.7946  1.2601 -2.5067
 3613SOL     OW12032   4.445   5.705   1.237  0.0137  0.2560 -0.1197
 3613SOL    HW112033   4.409   5.773   1.180 -0.6523  0.0289  0.0192
 3613SOL    HW212034   4.434   5.624   1.188  1.3098  0.2951 -0.5191
 3614SOL     OW12035   6.948   3.849   2.677  0.0310  0.0244 -0.0979
 3614SOL    HW112036   6.957   3.755   2.665  0.7826 -0.0949  1.2319
 3614SOL    HW212037   6.968   3.886   2.591  0.0347 -1.0009 -0.5528
 3615SOL     OW12038   3.531   6.594   1.245  0.3640  0.3116  0.0275
 3615SOL    HW112039   3.444   6.594   1.284  0.1514  1.7802 -0.3662
 3615SOL    HW212040   3.526   6.662   1.177  1.6396  0.0052 -0.3917
 3616SOL     OW12041   2.338   0.406   7.543  0.6275  0.2695  0.3790
 3616SOL    HW112042   2.286   0.362   7.476  0.4963  0.7541  0.1653
 3616SOL    HW212043   2.425   0.415   7.504  0.9832 -0.8356  0.8564
 3617SOL     OW12044   5.217   5.989   6.810 -0.6161 -0.2475  0.5148
 3617SOL    HW112045   5.287   6.054   6.818  1.7399 -2.6494  0.6204
 3617SOL    HW212046   5.161   6.005   6.886 -0.3803  1.8995  0.3050
 3618SOL     OW12047   3.271   4.173   8.451  0.1366 -0.4535 -0.8879
 3618SOL    HW112048   3.302   4.139   8.367 -0.8735  3.2105 -2.9591
 3618SOL    HW212049   3.291   4.267   8.448 -0.6931 -0.0179  2.6609
 3619SOL     OW12050   1.016   2.078   7.688  0.2913 -0.6981 -0.3927
 3619SOL    HW112051   0.978   2.165   7.701  0.9443 -0.5591  0.6084
 3619SOL    HW212052   1.000   2.032   7.770  0.1384 -1.4572 -0.8418
 3620SOL     OW12053   3.584   7.596   5.283  0.0574  0.0235 -0.3765
 3620SOL    HW112054   3.670   7.581   5.243  0.3550  2.5118 -0.8450
 3620SOL    HW212055   3.528   7.528   5.245  1.9980 -2.4241  0.8213
 3621SOL     OW12056   0.159   8.503   7.191  0.6688  0.5402  0.1216
 3621SOL    HW112057   0.160   8.597   7.170  1.9739  0.4742 -0.1742
 3621SOL    HW212058   0.139   8.500   7.284  1.1866  1.1519  0.2615
 3622SOL     OW12059   8.366   8.320   5.863 -0.2431  0.5026 -0.1549
 3622SOL    HW112060   8.315   8.352   5.937 -0.5645  1.7954 -0.9008
 3622SOL    HW212061   8.317   8.349   5.786  0.9480  0.6678 -0.8812
 3623SOL     OW12062   6.144   1.408   2.357 -0.4959  0.0074  0.2185
 3623SOL    HW112063   6.071   1.419   2.297  0.5163  0.0926 -1.0346
 3623SOL    HW212064   6.120   1.459   2.434 -1.1420  1.1704 -0.7327
 3624SOL     OW12065   4.588   1.158   6.511  0.5887 -0.2956 -0.0237
 3624SOL    HW112066   4.573   1.181   6.603  0.9663 -1.2791  0.2986
 3624SOL    HW212067   4.593   1.242   6.466 -1.7955  0.2003  0.4877
 3625SOL     OW12068   8.442   1.357   4.743  0.1109  0.6794 -0.4942
 3625SOL    HW112069   8.380   1.308   4.689 -1.6044 -1.0567  2.7446
 3625SOL    HW212070   8.391   1.431   4.777  1.0836  1.5900 -0.9351
 3626SOL     OW12071   7.168   7.820   5.268  0.0559  0.3810  0.0315
 3626SOL    HW112072   7.217   7.744   5.301 -3.5678 -1.6555  1.2514
 3626SOL    HW212073   7.185   7.889   5.332  0.3798 -0.6534  1.0891
 3627SOL     OW12074   3.248   7.181   2.048 -0.6500 -0.0495  0.1529
 3627SOL    HW112075   3.257   7.128   2.127 -1.5901  1.3372  1.2408
 3627SOL    HW212076   3.314   7.146   1.988  1.3831  0.0111  2.2215
 3628SOL     OW12077   6.396   6.474   1.600 -0.1708  0.5018 -0.0045
 3628SOL    HW112078   6.450   6.486   1.522 -0.8319 -0.9738 -0.7170
 3628SOL    HW212079   6.459   6.473   1.672  0.7319 -0.6862 -0.7764
 3629SOL     OW12080   7.132   1.346   5.344 -0.3449 -0.3640 -1.4658
 3629SOL    HW112081   7.049   1.393   5.343  0.7275  1.6380 -1.5428
 3629SOL    HW212082   7.183   1.385   5.274  1.6849  0.4716  0.3498
 3630SOL     OW12083   3.584   4.883   3.602  0.1841 -0.5047 -0.2712
 3630SOL    HW112084   3.555   4.944   3.533  0.1546 -0.2402 -0.0249
 3630SOL    HW212085   3.532   4.804   3.586 -1.8827  0.4654  1.0801
 3631SOL     OW12086   2.971   0.321   1.619 -1.2098  0.1452 -0.5042
 3631SOL    HW112087   2.929   0.238   1.642  0.0810 -0.9404 -1.8785
 3631SOL    HW212088   3.027   0.341   1.694 -0.6120 -0.8621 -0.6783
 3632SOL     OW12089   7.597   5.262   8.357 -0.8909  0.1896 -0.0157
 3632SOL    HW112090   7.691   5.257   8.372 -0.7700 -1.1995 -1.0220
 3632SOL    HW212091   7.583   5.216   8.274 -2.2858  1.7116 -0.6799
 3633SOL     OW12092   5.744   3.231   5.182 -0.1768  0.0343  0.1762
 3633SOL    HW112093   5.691   3.304   5.214 -2.6101 -1.6566  0.3423
 3633SOL    HW212094   5.752   3.173   5.258  0.6736 -0.4216 -0.2545
 3634SOL     OW12095   7.052   1.924   3.406 -0.4877 -0.4550  0.7220
 3634SOL    HW112096   7.008   1.937   3.490 -2.1464 -1.0499 -0.0052
 3634SOL    HW212097   6.999   1.973   3.343  1.6553  1.3797  0.2121
 3635SOL     OW12098   2.335   6.942   0.572  0.2158 -0.2739 -0.1422
 3635SOL    HW112099   2.323   6.999   0.648  0.9339 -1.4611  0.9014
 3635SOL    HW212100   2.419   6.969   0.535  0.3747 -0.4060  0.1233
 3636SOL     OW12101   0.727   4.176   6.335  0.1732 -0.1168  0.2207
 3636SOL    HW112102   0.690   4.196   6.421 -1.4513  0.1873 -0.5248
 3636SOL    HW212103   0.652   4.154   6.280  0.9472  1.5966 -1.6631
 3637SOL     OW12104   3.698   5.519   3.197 -0.0517 -0.2077 -0.6760
 3637SOL    HW112105   3.792   5.532   3.202 -0.2351  0.9855  0.2443
 3637SOL    HW212106   3.684   5.428   3.222  0.9015 -0.6603 -1.7041
 3638SOL     OW12107   8.185   1.528   1.100  0.4085 -0.1367 -0.4842
 3638SOL    HW112108   8.156   1.457   1.158  0.5683  0.3574  0.2092
 3638SOL    HW212109   8.261   1.565   1.145  1.9992 -1.2328 -2.1237
 3639SOL     OW12110   6.279   7.607   5.036 -0.3739 -0.2778 -0.3902
 3639SOL    HW112111   6.352   7.563   5.080 -0.2882  1.6587  1.6111
 3639SOL    HW212112   6.277   7.568   4.949  2.2349 -1.3151 -0.1035
 3640SOL     OW12113   1.620   7.941   2.213  0.1879 -0.0643  0.0809
 3640SOL    HW112114   1.684   7.882   2.251  1.0426  0.9652  0.2844
 3640SOL    HW212115   1.548   7.884   2.186 -0.5249 -0.9111  3.2657
 3641SOL     OW12116   7.510   5.568   7.982 -0.1461 -0.0392  0.2205
 3641SOL    HW112117   7.424   5.578   7.942 -0.4241 -0.3012  0.7419
 3641SOL    HW212118   7.498   5.500   8.049 -0.2143  1.8605  2.2385
 3642SOL     OW12119   1.376   0.109   7.008 -0.6434 -0.1454  0.6910
 3642SOL    HW112120   1.458   0.156   7.023  0.2474 -0.7810 -1.6303
 3642SOL    HW212121   1.317   0.174   6.970  0.2582 -0.5524 -1.5841
 3643SOL     OW12122   3.916   6.555   8.051  0.3792 -0.5547  0.0307
 3643SOL    HW112123   3.931   6.639   8.006  0.1263 -0.0946  0.7836
 3643SOL    HW212124   3.830   6.565   8.092  1.0434 -0.5355  1.5046
 3644SOL     OW12125   1.016   4.254   0.656  0.1951 -0.5748 -0.1892
 3644SOL    HW112126   0.973   4.334   0.685  0.8037 -0.4604  0.4190
 3644SOL    HW212127   1.076   4.282   0.587  0.6824 -0.4518  0.2853
 3645SOL     OW12128   8.520   8.269   6.887  0.0050  0.4216  0.7283
 3645SOL    HW112129   8.528   8.363   6.871  0.1535  0.6897  2.2124
 3645SOL    HW212130   8.562   8.256   6.972 -1.4235 -0.7265  1.2972
 3646SOL     OW12131   5.357   5.087   7.699  0.3932  0.5765  0.0159
 3646SOL    HW112132   5.431   5.044   7.741  1.2442  0.2598 -1.7150
 3646SOL    HW212133   5.369   5.069   7.606 -0.8510  2.1140 -0.4793
 3647SOL     OW12134   2.474   4.134   7.785 -0.2611  0.4763 -0.0541
 3647SOL    HW112135   2.452   4.057   7.733  1.1249  0.4751 -0.6964
 3647SOL    HW212136   2.390   4.175   7.805 -0.8999 -0.1641 -1.3296
 3648SOL     OW12137   1.139   1.782   5.169  0.3632 -0.0826 -0.0426
 3648SOL    HW112138   1.073   1.847   5.144  2.1713  1.1921 -1.8578
 3648SOL    HW212139   1.189   1.767   5.090  2.0480 -1.2365  1.1720
 3649SOL     OW12140   5.506   7.929   5.463  0.1935 -0.0867  0.1503
 3649SOL    HW112141   5.477   7.922   5.372 -0.8722  1.5959  0.3171
 3649SOL    HW212142   5.445   7.874   5.512  1.7059 -2.2537 -0.2676
 3650SOL     OW12143   2.923   1.005   3.614 -0.1461 -0.1651  0.0063
 3650SOL    HW112144   2.874   1.084   3.638  0.4774 -0.0913  1.1294
 3650SOL    HW212145   2.857   0.947   3.576 -1.1652 -0.1032  1.5641
 3651SOL     OW12146   0.457   1.088   0.866  0.3095 -0.2188 -0.0993
 3651SOL    HW112147   0.533   1.126   0.909 -0.7282  1.0801  0.6735
 3651SOL    HW212148   0.382   1.133   0.906 -0.9113 -2.0071 -0.2530
 3652SOL     OW12149   2.940   1.444   6.741 -0.4665 -0.0547  0.0838
 3652SOL    HW112150   2.921   1.414   6.652  2.8767 -1.7548 -0.2249
 3652SOL    HW212151   2.975   1.366   6.785  1.7916  1.6987  1.5858
 3653SOL     OW12152   5.049   4.291   3.028 -0.1577 -0.2185 -0.1826
 3653SOL    HW112153   4.975   4.263   3.082  0.4215 -1.3718  0.0451
 3653SOL    HW212154   5.031   4.383   3.008 -1.0806 -0.1700  0.8025
 3654SOL     OW12155   4.291   6.057   3.338 -0.0861  0.1915 -0.1843
 3654SOL    HW112156   4.245   6.120   3.393  0.5481  1.3822 -0.9628
 3654SOL    HW212157   4.253   6.069   3.251  0.8991  0.4109 -0.5993
 3655SOL     OW12158   8.585   8.587   0.867 -0.1740  0.6476 -0.1865
 3655SOL    HW112159   8.585   8.566   0.961 -1.1399 -0.2908 -0.3789
 3655SOL    HW212160   8.496   8.618   0.849 -0.7834 -1.5231 -1.2596
 3656SOL     OW12161   3.284   0.253   7.937 -0.3665  0.3517 -0.3902
 3656SOL    HW112162   3.239   0.197   8.001  1.1305 -1.0298 -0.4963
 3656SOL    HW212163   3.287   0.339   7.980  0.6823 -0.5574  1.5086
 3657SOL     OW12164   6.245   0.917   1.421  0.3795  0.1032  0.0681
 3657SOL    HW112165   6.157   0.951   1.439  0.6107  1.2389 -0.8234
 3657SOL    HW212166   6.232   0.823   1.408 -0.3854 -0.0953  1.8957
 3658SOL     OW12167   4.447   5.502   8.500 -0.2917  0.6221 -0.3038
 3658SOL    HW112168   4.407   5.555   8.569 -0.5878  0.4314 -0.3255
 3658SOL    HW212169   4.470   5.565   8.431  1.6827  1.0813  0.7119
 3659SOL     OW12170   8.389   7.846   5.409 -0.6020  0.4548  0.1384
 3659SOL    HW112171   8.483   7.864   5.411 -0.1539 -1.5793  1.8937
 3659SOL    HW212172   8.369   7.820   5.499 -1.8646 -3.4642 -1.1068
 3660SOL     OW12173   7.826   4.922   1.871 -0.2019 -0.0888  0.3315
 3660SOL    HW112174   7.843   4.858   1.940 -1.0070  2.7248  3.3680
 3660SOL    HW212175   7.889   4.992   1.887 -1.8258  1.6198 -0.4130
 3661SOL     OW12176   5.379   0.757   4.671 -1.2450 -0.3172  0.5259
 3661SOL    HW112177   5.372   0.745   4.765  0.4116 -0.4683  0.6446
 3661SOL    HW212178   5.344   0.675   4.634 -1.4488 -0.4496  1.0098
 3662SOL     OW12179   8.210   5.836   8.394 -0.2630 -0.2482 -0.4565
 3662SOL    HW112180   8.217   5.786   8.312  0.0033 -1.5014  0.3050
 3662SOL    HW212181   8.197   5.769   8.461  0.8844  0.6490  0.7002
 3663SOL     OW12182   4.223   0.217   8.102  0.1772  0.2283  0.3930
 3663SOL    HW112183   4.294   0.154   8.121  0.8403  1.5078  2.5521
 3663SOL    HW212184   4.256   0.268   8.028  1.1810  0.2964  0.8667
 3664SOL     OW12185   5.083   1.137   6.877  0.5187  0.1466 -0.1500
 3664SOL    HW112186   5.101   1.105   6.965 -0.1822  2.6245  1.0036
 3664SOL    HW212187   5.166   1.127   6.830  1.6147  0.8543  1.5219
 3665SOL     OW12188   3.214   4.160   6.221 -0.1159  0.1871 -0.1557
 3665SOL    HW112189   3.276   4.173   6.293  0.7933  0.0456 -0.8980
 3665SOL    HW212190   3.194   4.066   6.223  0.9221 -0.0680 -0.8750
 3666SOL     OW12191   6.266   7.391   3.603 -0.7265 -0.1003  0.0886
 3666SOL    HW112192   6.303   7.457   3.663  2.8894 -0.1705 -1.8141
 3666SOL    HW212193   6.286   7.307   3.645 -1.0594 -0.0975  0.2579
 3667SOL     OW12194   8.223   6.532   4.413 -0.6014 -0.2772  0.0916
 3667SOL    HW112195   8.247   6.616   4.373  0.2931 -0.5069  0.1321
 3667SOL    HW212196   8.249   6.466   4.350  2.1732 -0.7403  1.5717
 3668SOL     OW12197   0.454   1.316   7.565 -0.1680  0.3182  0.2152
 3668SOL    HW112198   0.517   1.244   7.559 -0.2482  0.1662  1.1195
 3668SOL    HW212199   0.495   1.379   7.625 -0.0917  1.0471 -0.5726
 3669SOL     OW12200   6.642   6.737   7.309  0.9609 -0.5680 -0.4838
 3669SOL    HW112201   6.582   6.665   7.330 -0.0105  0.5448  0.7096
 3669SOL    HW212202   6.672   6.718   7.220  0.4916 -2.2763 -0.3159
 3670SOL     OW12203   6.449   0.440   6.144  0.3354 -0.0433  0.3044
 3670SOL    HW112204   6.463   0.515   6.086 -0.2821 -0.1562 -0.0011
 3670SOL    HW212205   6.495   0.368   6.101  0.8498  0.1371  0.5496
 3671SOL     OW12206   0.703   8.037   8.404 -0.7755  0.2102  0.1018
 3671SOL    HW112207   0.676   7.956   8.360 -1.3551  0.1787  0.5021
 3671SOL    HW212208   0.744   8.007   8.485  0.7489  0.2453 -0.6194
 3672SOL     OW12209   4.086   5.784   5.978  0.8560 -0.0056 -0.3337
 3672SOL    HW112210   4.056   5.830   6.056 -1.7881 -0.3950 -1.0063
 3672SOL    HW212211   4.178   5.765   5.994  0.8000  1.3714  1.9491
 3673SOL     OW12212   0.800   1.897   6.433 -0.6242 -0.4662 -0.1844
 3673SOL    HW112213   0.752   1.979   6.422  2.5404  1.4159 -1.6440
 3673SOL    HW212214   0.836   1.901   6.521 -1.0754 -0.6694  0.0120
 3674SOL     OW12215   4.544   8.317   3.262 -0.3568  0.2919 -1.0170
 3674SOL    HW112216   4.490   8.289   3.188 -0.9502 -0.4066 -0.3359
 3674SOL    HW212217   4.552   8.412   3.251 -2.8227  0.6327 -0.4389
 3675SOL     OW12218   8.251   4.583   8.181  0.0199  0.0731  0.0840
 3675SOL    HW112219   8.319   4.520   8.206  0.4313 -0.0921 -1.3801
 3675SOL    HW212220   8.221   4.619   8.265  0.1919 -1.6144  0.9181
 3676SOL     OW12221   2.776   4.596   0.503 -0.0685 -0.3270 -0.2695
 3676SOL    HW112222   2.798   4.504   0.517 -0.1323 -0.4840 -1.1120
 3676SOL    HW212223   2.779   4.635   0.590  1.0194 -0.8917 -0.0394
 3677SOL     OW12224   6.355   5.092   4.245  0.3030  0.1152 -0.0477
 3677SOL    HW112225   6.298   5.014   4.250  2.2599 -1.3681  0.3498
 3677SOL    HW212226   6.378   5.099   4.153 -0.4413  0.6830 -0.1999
 3678SOL     OW12227   2.317   3.731   7.395 -0.2925  0.2796 -0.3717
 3678SOL    HW112228   2.324   3.708   7.487 -0.7343 -2.7758 -1.0111
 3678SOL    HW212229   2.407   3.747   7.367  0.2018 -1.5686  0.0167
 3679SOL     OW12230   4.220   1.813   5.704 -0.1541 -0.5746  0.2915
 3679SOL    HW112231   4.272   1.886   5.669 -0.3290  0.5598  2.2460
 3679SOL    HW212232   4.280   1.764   5.760 -0.9383  0.4072  2.0977
 3680SOL     OW12233   3.183   3.288   6.288  0.0161 -0.6131 -0.0941
 3680SOL    HW112234   3.150   3.265   6.202 -1.2195  2.3821 -0.5381
 3680SOL    HW212235   3.264   3.336   6.271 -1.1249  1.5279  0.2075
 3681SOL     OW12236   6.419   2.599   5.663  0.1087  0.2465 -0.0545
 3681SOL    HW112237   6.480   2.580   5.733  1.2041 -1.7080 -1.4388
 3681SOL    HW212238   6.392   2.513   5.630 -0.5032  1.0789 -1.8830
 3682SOL     OW12239   7.126   3.851   6.098  0.7954 -0.1268  0.7176
 3682SOL    HW112240   7.153   3.834   6.188 -0.5018 -1.2908  0.9179
 3682SOL    HW212241   7.032   3.870   6.105  0.6067 -0.5871 -0.4359
 3683SOL     OW12242   6.191   4.412   2.259  0.1033  0.2945 -0.1705
 3683SOL    HW112243   6.132   4.477   2.298  0.5454  0.1742  0.7373
 3683SOL    HW212244   6.141   4.331   2.257  0.3285  0.1169  0.8938
 3684SOL     OW12245   1.107   3.596   1.634 -0.4888  0.0998  0.3188
 3684SOL    HW112246   1.097   3.501   1.626 -2.4066  0.3658 -1.3545
 3684SOL    HW212247   1.201   3.610   1.641  0.0899 -1.8126 -2.1080
 3685SOL     OW12248   1.634   5.227   4.480  0.0051  0.3701  0.1475
 3685SOL    HW112249   1.696   5.172   4.529  0.7144  1.6014  0.6752
 3685SOL    HW212250   1.548   5.194   4.506  0.4010  0.0225  1.0841
 3686SOL     OW12251   4.176   6.031   4.238  0.1334  0.4156  0.3267
 3686SOL    HW112252   4.184   6.114   4.190 -0.3593  0.1957 -0.1502
 3686SOL    HW212253   4.085   6.027   4.265  0.6256  0.9835  2.1515
 3687SOL     OW12254   0.745   1.252   1.910 -0.9996 -0.7220 -0.0041
 3687SOL    HW112255   0.835   1.222   1.899 -0.7013  0.1210  0.0520
 3687SOL    HW212256   0.725   1.233   2.001 -0.4669  0.1292  0.3056
 3688SOL     OW12257   8.156   4.069   4.801 -0.5912 -0.1784  0.0975
 3688SOL    HW112258   8.133   4.148   4.752 -2.2308  0.6592  2.1039
 3688SOL    HW212259   8.250   4.058   4.786 -0.2882  2.2387 -0.1238
 3689SOL     OW12260   5.756   6.402   0.686 -0.6789  0.0959 -0.2444
 3689SOL    HW112261   5.745   6.315   0.648 -1.7882  0.8689 -1.7960
 3689SOL    HW212262   5.746   6.388   0.780  2.1647 -1.8752 -0.1264
 3690SOL     OW12263   2.057   8.501   4.415  0.3024  0.2920 -0.1935
 3690SOL    HW112264   2.068   8.541   4.329  0.1615  2.3502  0.6969
 3690SOL    HW212265   2.146   8.476   4.441  0.4005  0.0609 -0.7323
 3691SOL     OW12266   4.778   3.487   6.862 -0.3241  0.0240  0.2101
 3691SOL    HW112267   4.849   3.544   6.892  0.4156 -0.7448 -0.0407
 3691SOL    HW212268   4.822   3.415   6.817 -1.1921 -1.0495  1.0114
 3692SOL     OW12269   7.857   6.788   1.854  0.0006  0.1494  0.2970
 3692SOL    HW112270   7.915   6.774   1.779  0.1400 -0.7237  0.5613
 3692SOL    HW212271   7.891   6.730   1.922  0.6262  1.8154  1.4793
 3693SOL     OW12272   2.696   5.419   7.695 -0.5428  0.2071  0.0011
 3693SOL    HW112273   2.724   5.510   7.698 -2.4740  0.8252  2.1049
 3693SOL    HW212274   2.733   5.380   7.774 -2.5871  0.1787  1.0302
 3694SOL     OW12275   2.455   1.229   6.892  0.5887  0.2285  0.1180
 3694SOL    HW112276   2.435   1.252   6.801 -0.0588 -0.1167  0.1612
 3694SOL    HW212277   2.549   1.213   6.893  0.3857 -1.3173 -0.8568
 3695SOL     OW12278   3.248   7.373   6.486 -0.3363 -0.2880  0.3624
 3695SOL    HW112279   3.220   7.364   6.577 -1.7026 -1.1568 -0.1014
 3695SOL    HW212280   3.326   7.317   6.480  0.2252  0.3818  1.1598
 3696SOL     OW12281   4.629   7.673   0.467  0.4626  0.4994  0.5597
 3696SOL    HW112282   4.680   7.728   0.407 -0.6665  2.9093  1.6844
 3696SOL    HW212283   4.540   7.675   0.432  0.1754  0.3325  1.2589
 3697SOL     OW12284   1.701   6.196   2.487 -0.1359 -0.0656 -0.3117
 3697SOL    HW112285   1.648   6.116   2.480 -0.9520  0.5305 -1.1872
 3697SOL    HW212286   1.757   6.195   2.409  0.0432  0.0871 -0.1864
 3698SOL     OW12287   0.142   3.489   1.314  0.3071 -0.3071  0.2364
 3698SOL    HW112288   0.165   3.573   1.354 -0.6418  0.6369 -1.0923
 3698SOL    HW212289   0.225   3.441   1.312  1.3009  1.3138 -0.5842
 3699SOL     OW12290   6.336   2.407   3.180  0.1345 -0.5996 -0.1751
 3699SOL    HW112291   6.283   2.470   3.229 -0.0153 -0.2445 -0.7851
 3699SOL    HW212292   6.274   2.365   3.120  0.3219 -1.0038 -0.0865
 3700SOL     OW12293   4.075   1.618   6.515 -0.4212  0.1968 -0.3921
 3700SOL    HW112294   4.163   1.654   6.529 -1.0806  1.3352  1.0408
 3700SOL    HW212295   4.078   1.531   6.555 -0.3029  0.7424  0.8040
 3701SOL     OW12296   2.675   5.082   1.090 -0.2693  0.5970  0.1962
 3701SOL    HW112297   2.705   5.090   0.999 -1.4094  1.7371 -0.1165
 3701SOL    HW212298   2.655   4.990   1.100 -0.2248  0.4664 -0.7575
 3702SOL     OW12299   4.910   3.854   0.774  0.1774  0.0511  0.1290
 3702SOL    HW112300   4.972   3.790   0.808 -1.5636 -1.7009  0.2401
 3702SOL    HW212301   4.901   3.919   0.844  2.1664  0.6161 -0.0824
 3703SOL     OW12302   2.026   8.000   7.100  0.4101  0.8225  0.0219
 3703SOL    HW112303   2.066   7.946   7.032 -0.7021 -0.3743  0.2848
 3703SOL    HW212304   1.933   8.003   7.078  0.3470  2.1685  0.3432
 3704SOL     OW12305   0.800   7.930   3.438  0.1360 -0.1898  0.1443
 3704SOL    HW112306   0.741   8.002   3.461 -0.6395 -0.8707  0.2922
 3704SOL    HW212307   0.745   7.868   3.391  1.0984 -0.0791 -1.1841
 3705SOL     OW12308   2.979   4.454   4.207  0.1268  0.3601 -0.4533
 3705SOL    HW112309   3.061   4.461   4.255  0.5971 -1.8926 -0.8093
 3705SOL    HW212310   2.912   4.448   4.275  0.2827  1.7331 -0.1570
 3706SOL     OW12311   1.451   5.196   5.490  0.1715  0.6858  0.0979
 3706SOL    HW112312   1.495   5.263   5.542  2.5265 -1.1620  0.6566
 3706SOL    HW212313   1.385   5.159   5.549  0.2716  1.1232  0.4864
 3707SOL     OW12314   1.856   5.116   5.537  0.4949 -0.4263 -0.0652
 3707SOL    HW112315   1.838   5.196   5.488 -0.8636 -0.1765  0.7836
 3707SOL    HW212316   1.796   5.052   5.500 -1.0562 -0.0513  1.6645
 3708SOL     OW12317   4.944   6.553   2.111  0.2496 -0.2001 -0.1450
 3708SOL    HW112318   4.880   6.593   2.171 -0.3279 -1.0286 -0.1841
 3708SOL    HW212319   4.960   6.619   2.045 -0.9744 -0.1527 -0.4188
 3709SOL     OW12320   6.425   0.487   7.624  0.2843 -0.7359  0.4170
 3709SOL    HW112321   6.470   0.408   7.593 -0.5299 -1.2735  0.5572
 3709SOL    HW212322   6.394   0.529   7.544  0.3525 -0.7809  0.3659
 3710SOL     OW12323   7.479   6.619   3.937 -0.0041 -0.4038 -0.0320
 3710SOL    HW112324   7.525   6.625   4.021  1.7420 -1.2832 -0.8841
 3710SOL    HW212325   7.395   6.578   3.959  0.2444 -0.2297  1.3425
 3711SOL     OW12326   6.368   3.371   4.091  0.1936  0.1379  0.1799
 3711SOL    HW112327   6.347   3.447   4.146 -1.3278 -1.1306  1.4603
 3711SOL    HW212328   6.285   3.324   4.083  1.0879 -1.3881 -0.5801
 3712SOL     OW12329   7.650   6.351   7.251  0.2415  0.3319  0.0070
 3712SOL    HW112330   7.625   6.380   7.338 -0.4648  2.8515 -0.9246
 3712SOL    HW212331   7.608   6.415   7.192  0.5053 -1.3984 -2.1804
 3713SOL     OW12332   0.643   1.176   5.586  0.0029 -0.1702  0.5582
 3713SOL    HW112333   0.675   1.265   5.575  1.0882 -0.5271  0.7308
 3713SOL    HW212334   0.696   1.140   5.658  0.0805 -1.1815  0.0088
 3714SOL     OW12335   1.769   3.801   8.330  0.2861 -0.5993 -0.0369
 3714SOL    HW112336   1.755   3.706   8.336 -0.4538 -0.4083  1.4592
 3714SOL    HW212337   1.810   3.825   8.413 -2.4118  0.8503  0.9810
 3715SOL     OW12338   4.213   3.799   7.105 -0.0207 -0.2428  0.2894
 3715SOL    HW112339   4.163   3.759   7.176  0.9273  0.3494  1.3207
 3715SOL    HW212340   4.267   3.866   7.148 -0.6148  1.2774 -1.1989
 3716SOL     OW12341   3.793   3.044   5.448 -0.6818  0.6409 -0.2998
 3716SOL    HW112342   3.771   2.980   5.380  1.3534 -1.0803  0.5391
 3716SOL    HW212343   3.740   3.018   5.523 -0.1550  0.1717 -0.0849
 3717SOL     OW12344   2.964   6.939   1.957 -0.2341 -0.0185 -0.3042
 3717SOL    HW112345   2.916   6.998   1.900  0.3244 -0.1402 -0.9138
 3717SOL    HW212346   3.034   6.993   1.994 -0.3896 -0.0242  0.0017
 3718SOL     OW12347   4.525   2.691   0.681 -0.3514  0.2913 -0.3238
 3718SOL    HW112348   4.477   2.679   0.763  0.4043  0.5635  0.1711
 3718SOL    HW212349   4.592   2.756   0.702  0.6209 -0.5218 -0.8324
 3719SOL     OW12350   5.464   6.559   4.259  0.1263 -0.2389  0.0512
 3719SOL    HW112351   5.531   6.567   4.192 -0.1916 -1.1113 -0.3831
 3719SOL    HW212352   5.482   6.475   4.301 -0.0353  0.0266  0.6694
 3720SOL     OW12353   5.899   3.420   7.350  0.1393  0.5373  0.3615
 3720SOL    HW112354   5.896   3.334   7.392 -0.2842  0.0289 -0.6884
 3720SOL    HW212355   5.845   3.476   7.406 -1.4996 -0.4532 -0.1845
 3721SOL     OW12356   1.001   1.490   0.912  0.1970  0.5460 -0.0938
 3721SOL    HW112357   1.041   1.437   0.843  1.4839  1.8737 -0.4271
 3721SOL    HW212358   1.074   1.518   0.967 -0.8014 -0.4945  1.8900
 3722SOL     OW12359   6.604   0.567   4.532 -0.3320 -0.3040  0.3760
 3722SOL    HW112360   6.650   0.498   4.486  0.1546  1.0989 -1.3294
 3722SOL    HW212361   6.668   0.638   4.540 -2.0435  1.6553 -1.9634
 3723SOL     OW12362   6.209   8.508   6.775  0.5724  0.3950 -0.3848
 3723SOL    HW112363   6.226   8.438   6.838 -0.1235  1.2544  0.7849
 3723SOL    HW212364   6.295   8.531   6.740  0.7360 -1.6501 -1.4956
 3724SOL     OW12365   6.999   5.382   7.533  0.8621 -0.1127 -0.1257
 3724SOL    HW112366   7.084   5.373   7.489  2.3953 -0.2410  2.6397
 3724SOL    HW212367   7.018   5.368   7.626 -1.8813  1.6564  0.8422
 3725SOL     OW12368   4.143   0.005   5.166 -0.2321  0.4902  0.3570
 3725SOL    HW112369   4.147  -0.041   5.082 -1.6018  1.0050 -0.0175
 3725SOL    HW212370   4.051   0.032   5.175 -0.3360 -0.3111  2.4385
 3726SOL     OW12371   2.176   7.651   0.122 -0.1033 -0.2902 -0.8575
 3726SOL    HW112372   2.094   7.675   0.167  0.9078 -0.8007  1.3978
 3726SOL    HW212373   2.177   7.706   0.044 -1.7973  0.9603 -0.0753
 3727SOL     OW12374   1.446   8.414   2.951 -0.1990  0.3127  0.2850
 3727SOL    HW112375   1.438   8.492   2.897  0.4587  0.8066  0.8780
 3727SOL    HW212376   1.500   8.442   3.025  0.7111 -0.9130  0.1141
 3728SOL     OW12377   0.814   0.259   4.865  0.1535 -0.2692  0.0601
 3728SOL    HW112378   0.748   0.328   4.857 -0.0066 -0.4134  0.1246
 3728SOL    HW212379   0.796   0.218   4.950  1.1979  0.5859  0.7137
 3729SOL     OW12380   0.402   7.842   4.150 -0.2108 -0.4375  0.8389
 3729SOL    HW112381   0.447   7.922   4.175 -0.5103 -0.8793  3.0350
 3729SOL    HW212382   0.466   7.772   4.163  0.4054 -0.5226 -2.1189
 3730SOL     OW12383   1.025   3.649   4.131  0.2081  0.3258  0.8635
 3730SOL    HW112384   0.997   3.733   4.166 -1.3448 -0.3588  1.3506
 3730SOL    HW212385   0.953   3.589   4.152  0.8512 -0.9104 -0.3101
 3731SOL     OW12386   4.520   7.073   0.786 -0.1317 -0.1153  0.1790
 3731SOL    HW112387   4.546   7.046   0.874  0.6631 -0.1107 -0.0541
 3731SOL    HW212388   4.426   7.053   0.783 -0.1162 -0.3516  0.9374
 3732SOL     OW12389   8.493   3.211   4.455 -0.2998 -0.6619  0.7415
 3732SOL    HW112390   8.482   3.213   4.360 -0.5539  1.4457  0.7796
 3732SOL    HW212391   8.410   3.176   4.488  0.2221 -2.5733  0.1897
 3733SOL     OW12392   7.584   7.590   4.803  0.6078 -0.6078  0.2773
 3733SOL    HW112393   7.645   7.520   4.827  1.7917  0.7711  1.5234
 3733SOL    HW212394   7.626   7.633   4.728  0.8557 -0.0810  0.7083
 3734SOL     OW12395   5.403   3.326   8.519 -0.0409 -0.6755 -0.4711
 3734SOL    HW112396   5.366   3.297   8.436 -1.1038 -0.4341 -0.0977
 3734SOL    HW212397   5.496   3.343   8.500 -0.3175 -0.4293 -1.6485
 3735SOL     OW12398   8.237   8.464   3.614  0.0004  0.1648  0.2912
 3735SOL    HW112399   8.186   8.539   3.645 -1.4434 -0.4167 -0.5604
 3735SOL    HW212400   8.183   8.427   3.544  0.2308 -2.2004  1.2983
 3736SOL     OW12401   4.768   7.710   6.918 -0.4329  0.8468  0.1746
 3736SOL    HW112402   4.781   7.697   6.824  0.4998  2.8004 -0.0209
 3736SOL    HW212403   4.698   7.649   6.941 -0.8663  0.4981 -1.8329
 3737SOL     OW12404   1.313   7.232   6.614 -0.2314  0.5516 -0.2157
 3737SOL    HW112405   1.303   7.218   6.519 -0.6355  1.3951 -0.3058
 3737SOL    HW212406   1.238   7.186   6.653 -1.0061  1.5822 -0.4391
 3738SOL     OW12407   7.757   8.366   3.085  0.9232 -0.1325 -0.1102
 3738SOL    HW112408   7.742   8.455   3.117 -0.2197 -0.6786  0.9790
 3738SOL    HW212409   7.780   8.377   2.993 -0.3346  1.2404 -0.3020
 3739SOL     OW12410   4.438   7.325   5.614 -0.2943 -0.2469  0.5587
 3739SOL    HW112411   4.494   7.291   5.685  0.9205 -0.4077 -0.4431
 3739SOL    HW212412   4.498   7.374   5.558 -1.1266 -0.5608 -0.6373
 3740SOL     OW12413   5.589   4.845   0.694 -0.2369  0.2188  0.0115
 3740SOL    HW112414   5.542   4.872   0.615 -0.2407  0.0989 -0.0283
 3740SOL    HW212415   5.569   4.912   0.758 -2.2200 -0.9136  0.6547
 3741SOL     OW12416   7.126   4.242   8.561 -0.1640 -0.2909  0.6313
 3741SOL    HW112417   7.093   4.211   8.645  0.2016 -2.0609  0.1783
 3741SOL    HW212418   7.084   4.185   8.496 -0.9000  1.4113 -0.4647
 3742SOL     OW12419   4.269   7.307   2.038 -0.6214 -0.2948  0.0074
 3742SOL    HW112420   4.319   7.277   1.962 -2.9773 -3.3749 -0.5133
 3742SOL    HW212421   4.335   7.336   2.101  1.6127 -1.4829 -1.6563
 3743SOL     OW12422   6.845   5.046   4.838  0.0743  0.0466  0.2253
 3743SOL    HW112423   6.911   4.993   4.793  1.7326  1.1569  1.2532
 3743SOL    HW212424   6.766   5.036   4.785  1.1973 -0.8753 -1.3561
 3744SOL     OW12425   7.452   1.520   2.173  0.2004 -0.1573 -0.2494
 3744SOL    HW112426   7.462   1.605   2.131 -1.0841  0.0421 -0.1900
 3744SOL    HW212427   7.378   1.531   2.233 -0.5341 -1.5158 -0.8529
 3745SOL     OW12428   5.345   5.480   0.639  0.1443  0.3448  0.7398
 3745SOL    HW112429   5.277   5.518   0.583  0.8670  0.5966  0.0240
 3745SOL    HW212430   5.373   5.401   0.593  0.3236  0.2299  1.0419
 3746SOL     OW12431   5.318   2.227   1.179  0.4395  0.4819  0.1193
 3746SOL    HW112432   5.354   2.238   1.267 -0.0019  0.0755  0.3560
 3746SOL    HW212433   5.254   2.156   1.188  0.2513  0.5702 -0.4867
 3747SOL     OW12434   4.867   4.112   7.849 -0.5727  0.3059 -0.3780
 3747SOL    HW112435   4.865   4.196   7.895 -0.8448  0.8007 -1.2657
 3747SOL    HW212436   4.959   4.095   7.831 -0.5659  0.7185 -0.7335
 3748SOL     OW12437   0.434   7.425   3.108  0.2430  0.5723  0.1319
 3748SOL    HW112438   0.387   7.423   3.192 -0.5249  1.0185 -0.2742
 3748SOL    HW212439   0.459   7.517   3.097 -0.9703  0.8012 -0.8287
 3749SOL     OW12440   3.562   4.996   0.722 -0.6618  0.0595 -0.3844
 3749SOL    HW112441   3.652   4.968   0.707 -0.2207  1.3681 -0.3086
 3749SOL    HW212442   3.553   5.000   0.817 -0.2178  1.6053 -0.3734
 3750SOL     OW12443   3.485   7.100   2.790 -0.2042 -0.2544 -0.6532
 3750SOL    HW112444   3.552   7.043   2.828 -0.9996  0.2571  1.6960
 3750SOL    HW212445   3.525   7.187   2.789 -0.2040 -0.2580 -0.9414
 3751SOL     OW12446   1.917   6.209   3.418 -0.0487 -0.6272  0.3694
 3751SOL    HW112447   1.905   6.127   3.465  0.6221  0.3274  2.3571
 3751SOL    HW212448   1.864   6.272   3.467 -1.4576 -0.0338 -1.7680
 3752SOL     OW12449   4.727   4.472   2.503 -0.0062  0.7767  0.0818
 3752SOL    HW112450   4.800   4.468   2.441  0.4466 -0.5009  0.6702
 3752SOL    HW212451   4.767   4.508   2.583 -0.1204  0.4865  0.2687
 3753SOL     OW12452   0.765   6.780   5.399 -0.1405 -1.2944 -0.2855
 3753SOL    HW112453   0.826   6.749   5.465  2.3647 -1.2946 -2.4550
 3753SOL    HW212454   0.722   6.700   5.366 -0.4174 -1.4249  0.3818
 3754SOL     OW12455   5.763   1.688   3.019 -0.4141 -0.1561 -0.5757
 3754SOL    HW112456   5.813   1.766   3.044 -1.9742  0.1471  1.8748
 3754SOL    HW212457   5.800   1.663   2.934  0.6214  2.8117 -1.1239
 3755SOL     OW12458   6.803   1.409   2.647 -0.0798 -0.1266 -0.3674
 3755SOL    HW112459   6.734   1.455   2.601 -0.2653 -1.2451 -1.2647
 3755SOL    HW212460   6.843   1.475   2.704 -0.3435  1.1053 -1.5767
 3756SOL     OW12461   6.798   6.908   6.803  0.2747 -0.3464  0.4848
 3756SOL    HW112462   6.725   6.917   6.865 -0.5701  1.5551 -0.7211
 3756SOL    HW212463   6.843   6.992   6.806  0.2957 -0.2601 -1.3838
 3757SOL     OW12464   5.215   2.214   3.968 -0.1279 -0.0823 -0.4634
 3757SOL    HW112465   5.162   2.280   4.013 -0.2759 -0.0228 -0.7239
 3757SOL    HW212466   5.298   2.258   3.949 -0.6079  0.3714 -1.5798
 3758SOL     OW12467   8.283   5.210   3.848 -0.0520 -0.0419  0.2907
 3758SOL    HW112468   8.329   5.127   3.841  1.2274  0.6705 -0.0024
 3758SOL    HW212469   8.207   5.201   3.791 -0.7414 -1.5207  1.3883
 3759SOL     OW12470   7.281   3.136   5.468  0.4851 -0.1969 -0.3631
 3759SOL    HW112471   7.263   3.225   5.439  0.5204 -0.3156 -0.7618
 3759SOL    HW212472   7.227   3.081   5.411 -2.9558 -0.2632  2.6275
 3760SOL     OW12473   2.510   7.506   1.064  0.2435 -0.3766 -0.2074
 3760SOL    HW112474   2.553   7.549   1.139  2.7320 -1.8799 -0.6460
 3760SOL    HW212475   2.546   7.551   0.988 -2.2293  1.0978 -0.5831
 3761SOL     OW12476   2.958   4.910   3.431 -0.2929 -0.9619  0.1719
 3761SOL    HW112477   3.037   4.933   3.480  1.5945 -0.9660 -2.6363
 3761SOL    HW212478   2.907   4.856   3.491  1.2581  0.0269  2.4932
 3762SOL     OW12479   0.664   6.743   0.271  0.0403 -0.5468 -0.1382
 3762SOL    HW112480   0.604   6.801   0.226 -0.4137 -1.8666 -1.2868
 3762SOL    HW212481   0.710   6.800   0.333 -1.7500  0.6493  0.1555
 3763SOL     OW12482   3.910   2.985   7.089  0.5298 -0.2749 -0.2778
 3763SOL    HW112483   3.931   3.074   7.061  0.6288 -0.5541 -1.1334
 3763SOL    HW212484   3.956   2.929   7.026  0.7600 -0.9371  0.4610
 3764SOL     OW12485   7.938   6.938   3.843 -0.0310  0.6085 -0.0617
 3764SOL    HW112486   7.918   7.005   3.908 -0.7233 -1.4351  1.9695
 3764SOL    HW212487   7.859   6.885   3.836  0.5433 -0.1467 -1.4595
 3765SOL     OW12488   5.059   6.067   0.448  0.2316 -0.0813 -0.0472
 3765SOL    HW112489   5.004   6.121   0.504  0.3051 -0.5413  0.4820
 3765SOL    HW212490   5.138   6.051   0.500  0.8215  0.4714 -0.7497
 3766SOL     OW12491   3.852   8.139   8.267  0.2214 -0.2209  0.1086
 3766SOL    HW112492   3.768   8.106   8.299  0.3679 -0.0454  0.6802
 3766SOL    HW212493   3.875   8.209   8.328  1.2163 -0.8674  0.5058
 3767SOL     OW12494   2.545   4.437   1.803  0.3185  0.1083 -0.1956
 3767SOL    HW112495   2.608   4.366   1.795  1.7968  1.4545 -1.0427
 3767SOL    HW212496   2.507   4.425   1.890 -2.4839 -4.0285 -1.7154
 3768SOL     OW12497   0.583   1.707   1.680  0.5555  0.8246  0.4230
 3768SOL    HW112498   0.574   1.619   1.643 -1.2094  1.2203 -0.1640
 3768SOL    HW212499   0.665   1.704   1.730  0.2827 -1.2823  0.8102
 3769SOL     OW12500   2.909   6.407   5.465 -0.0489 -0.6905  0.3648
 3769SOL    HW112501   2.961   6.382   5.541  0.9397 -0.9480 -0.3917
 3769SOL    HW212502   2.889   6.500   5.480  0.6017 -0.5969  0.6617
 3770SOL     OW12503   7.135   4.210   5.113  0.1648 -1.2487 -0.2552
 3770SOL    HW112504   7.052   4.182   5.075 -2.9674  3.5784  1.9920
 3770SOL    HW212505   7.163   4.284   5.059  1.1195 -0.6797  0.9668
 3771SOL     OW12506   5.138   0.034   3.377  0.4636  0.5438 -0.5004
 3771SOL    HW112507   5.069   0.036   3.444  2.6294  0.7524  1.8697
 3771SOL    HW212508   5.167   0.124   3.369  2.2451  0.1010  0.5640
 3772SOL     OW12509   0.648   5.594   4.335 -0.1225 -0.3093  0.6938
 3772SOL    HW112510   0.698   5.622   4.413 -0.8366 -1.6851  1.6921
 3772SOL    HW212511   0.570   5.649   4.335  0.8427  1.1050 -0.2519
 3773SOL     OW12512   0.690   4.033   7.950  0.4688  0.5861  0.1999
 3773SOL    HW112513   0.689   4.125   7.976 -1.1472  0.4514  0.7478
 3773SOL    HW212514   0.631   4.029   7.875 -1.6210 -0.3599  1.7704
 3774SOL     OW12515   0.857   8.119   0.242  0.3122  0.2224 -0.0366
 3774SOL    HW112516   0.789   8.187   0.240  1.2859  1.2400 -2.1119
 3774SOL    HW212517   0.937   8.167   0.265  1.0467 -0.1365 -1.7083
 3775SOL     OW12518   0.221   8.304   3.471  0.5184  0.3945  0.2428
 3775SOL    HW112519   0.218   8.345   3.557 -0.2094 -2.3410  1.6579
 3775SOL    HW212520   0.129   8.299   3.444  0.5335 -0.5969  0.3176
 3776SOL     OW12521   8.335   0.218   7.014  0.4870 -0.2064  0.0612
 3776SOL    HW112522   8.413   0.200   7.065  0.5385 -0.3382 -0.0644
 3776SOL    HW212523   8.263   0.186   7.068  0.5282 -0.1844  0.1295
 3777SOL     OW12524   5.301   2.369   3.258 -0.3961 -0.1661  0.2270
 3777SOL    HW112525   5.255   2.373   3.341  1.4686 -1.5604  1.3995
 3777SOL    HW212526   5.242   2.413   3.196 -1.0129  2.7077  2.6042
 3778SOL     OW12527   6.972   5.890   7.219  0.3241 -0.0007 -0.6805
 3778SOL    HW112528   6.917   5.841   7.157 -1.5662 -0.1632  1.0280
 3778SOL    HW212529   7.051   5.837   7.226  0.0887 -0.5951 -2.0394
 3779SOL     OW12530   5.454   2.527   4.162 -0.2849 -0.5246  0.0218
 3779SOL    HW112531   5.446   2.618   4.136  0.6679 -0.3569  0.2859
 3779SOL    HW212532   5.452   2.478   4.080  0.7055 -0.1463 -0.2416
 3780SOL     OW12533   7.426   6.372   3.673 -0.3594 -0.2962  0.0403
 3780SOL    HW112534   7.381   6.336   3.750 -0.4125  1.4360  0.8532
 3780SOL    HW212535   7.358   6.379   3.606 -0.6663 -0.3352  0.3448
 3781SOL     OW12536   0.755   3.013   1.218  0.2156  0.3503 -0.1434
 3781SOL    HW112537   0.669   3.033   1.181  0.6304  1.5425 -0.4932
 3781SOL    HW212538   0.814   3.018   1.143  0.4979 -1.2741 -0.0654
 3782SOL     OW12539   2.312   1.737   7.385  0.1337 -0.3275  1.0491
 3782SOL    HW112540   2.264   1.706   7.308 -1.4643  2.1228  0.9467
 3782SOL    HW212541   2.372   1.665   7.406 -0.7210 -1.8634 -1.2980
 3783SOL     OW12542   3.347   7.499   3.746 -0.2376  0.5975  0.2868
 3783SOL    HW112543   3.375   7.529   3.832  0.9134 -0.1968  0.2053
 3783SOL    HW212544   3.349   7.577   3.691 -0.4549  0.9975  0.8337
 3784SOL     OW12545   8.598   4.752   3.521  0.5499 -0.2973 -0.0469
 3784SOL    HW112546   8.638   4.839   3.521  2.3669 -1.0725  1.0723
 3784SOL    HW212547   8.547   4.748   3.601  2.0683 -0.8839  0.9470
 3785SOL     OW12548   0.554   2.676   5.897 -0.3433 -0.1722  0.3558
 3785SOL    HW112549   0.469   2.666   5.940  0.2320 -1.1379  1.3247
 3785SOL    HW212550   0.617   2.643   5.961  0.4615 -2.8444 -1.6181
 3786SOL     OW12551   8.486   0.142   1.823  0.3728 -0.1200  0.1550
 3786SOL    HW112552   8.479   0.223   1.772  0.3605 -0.2375 -0.0310
 3786SOL    HW212553   8.405   0.139   1.875 -0.7140 -1.1385 -1.4958
 3787SOL     OW12554   0.530   6.397   2.743 -0.3493  0.7584  0.4281
 3787SOL    HW112555   0.614   6.352   2.738 -0.6712  0.0620  1.0805
 3787SOL    HW212556   0.532   6.441   2.828 -0.4479  1.1348  0.2358
 3788SOL     OW12557   0.381   5.831   1.088  0.3422 -0.2801 -0.0835
 3788SOL    HW112558   0.354   5.910   1.135  1.1296  0.0854 -0.2282
 3788SOL    HW212559   0.318   5.822   1.017  1.7706  1.8039 -1.7668
 3789SOL     OW12560   5.477   3.341   3.665 -0.2321  0.3535 -0.1149
 3789SOL    HW112561   5.499   3.257   3.624  0.8253  0.9424 -0.7958
 3789SOL    HW212562   5.560   3.374   3.698 -0.5189  1.4567 -0.4708
 3790SOL     OW12563   6.164   3.306   1.138 -0.5399 -0.2899  0.0796
 3790SOL    HW112564   6.094   3.264   1.087  1.3838 -0.6512 -2.4535
 3790SOL    HW212565   6.213   3.233   1.176 -0.5754 -0.1090  0.4730
 3791SOL     OW12566   0.357   0.409   5.367  0.2064  0.0163  0.0352
 3791SOL    HW112567   0.334   0.409   5.460 -1.7997  3.3696 -0.2803
 3791SOL    HW212568   0.404   0.492   5.354 -0.4899  0.1494 -2.0721
 3792SOL     OW12569   5.849   3.812   5.263  0.3530  0.4966  0.8012
 3792SOL    HW112570   5.787   3.786   5.332 -0.0208  2.8811  1.4606
 3792SOL    HW212571   5.799   3.871   5.207  1.0870 -0.2595 -0.6954
 3793SOL     OW12572   3.519   5.206   5.697 -0.0665  0.1401  0.1306
 3793SOL    HW112573   3.519   5.148   5.773 -0.8314  0.6302  0.5179
 3793SOL    HW212574   3.479   5.154   5.627 -0.8875  0.2401  0.5157
 3794SOL     OW12575   1.094   2.127   8.546  0.3391  0.3471  0.0299
 3794SOL    HW112576   1.169   2.074   8.516 -0.3223 -0.3895 -0.3732
 3794SOL    HW212577   1.036   2.131   8.470 -0.0345  0.9158  0.3375
 3795SOL     OW12578   6.226   5.850   2.245  0.6755  0.2525 -0.1174
 3795SOL    HW112579   6.140   5.879   2.214  0.2974  0.3270  0.9452
 3795SOL    HW212580   6.210   5.763   2.282  0.6484  1.0264  1.7908
 3796SOL     OW12581   3.844   5.354   3.731 -0.3685 -0.0275 -0.5555
 3796SOL    HW112582   3.769   5.295   3.722 -1.5144  1.3908 -0.6193
 3796SOL    HW212583   3.851   5.369   3.825  0.7458 -1.2609 -0.4206
 3797SOL     OW12584   3.813   6.899   1.015  0.1587 -0.4544 -0.0625
 3797SOL    HW112585   3.723   6.887   1.043  0.2452  0.0812  0.4540
 3797SOL    HW212586   3.809   6.969   0.950  0.5216  1.5371  1.9370
 3798SOL     OW12587   6.276   3.014   0.385 -0.6803 -0.0082  0.3051
 3798SOL    HW112588   6.298   3.003   0.477  2.4746  0.1395 -0.3181
 3798SOL    HW212589   6.344   3.072   0.350 -0.5656 -1.6249 -2.5247
 3799SOL     OW12590   4.086   0.832   4.019 -0.2208  0.1292  0.6987
 3799SOL    HW112591   4.004   0.867   3.985 -0.7172 -0.6246  1.0817
 3799SOL    HW212592   4.061   0.785   4.098  0.3760 -1.2302  0.1139
 3800SOL     OW12593   1.332   4.468   3.592 -0.4556 -0.1932 -0.2428
 3800SOL    HW112594   1.253   4.498   3.637 -0.0255  0.0585  0.3565
 3800SOL    HW212595   1.400   4.528   3.622 -0.2928  0.4281 -1.7730
 3801SOL     OW12596   8.039   5.301   4.975  0.5065 -0.1229 -0.0355
 3801SOL    HW112597   8.125   5.292   5.017  0.4803  1.8864  0.5226
 3801SOL    HW212598   8.058   5.298   4.881  0.9899 -1.1272  0.0731
 3802SOL     OW12599   7.182   3.899   0.662 -0.2375  0.1898 -0.3164
 3802SOL    HW112600   7.220   3.983   0.638 -0.2771  0.2851 -0.0445
 3802SOL    HW212601   7.242   3.834   0.626 -0.9872  0.3068 -1.8603
 3803SOL     OW12602   4.057   0.699   4.253 -0.4008 -0.0094 -0.6107
 3803SOL    HW112603   3.962   0.696   4.264 -0.2761 -1.5217  0.3201
 3803SOL    HW212604   4.090   0.625   4.304  1.3133  0.6851 -0.6304
 3804SOL     OW12605   7.864   2.874   6.287 -0.3794  0.2522  0.3115
 3804SOL    HW112606   7.800   2.804   6.288  1.3018 -1.3789  1.3033
 3804SOL    HW212607   7.925   2.850   6.218  0.0789  0.8702  0.4865
 3805SOL     OW12608   6.837   2.925   0.290 -0.3546 -0.9345 -0.3152
 3805SOL    HW112609   6.748   2.899   0.263  0.3796 -3.3421 -0.6638
 3805SOL    HW212610   6.887   2.843   0.289  1.9188  0.3797 -0.2113
 3806SOL     OW12611   0.014   1.331   3.462  0.9870  0.4757  0.9854
 3806SOL    HW112612  -0.024   1.247   3.487  1.0985  0.0405 -0.2556
 3806SOL    HW212613   0.109   1.318   3.469  1.0006  0.5498  0.9460
 3807SOL     OW12614   8.395   8.398   6.275 -0.5811  0.5735 -0.6415
 3807SOL    HW112615   8.393   8.491   6.254  1.3458  0.6676 -0.5524
 3807SOL    HW212616   8.443   8.357   6.203  1.7905  0.2106  1.0437
 3808SOL     OW12617   4.275   7.396   3.946  0.5555  0.3997  0.1048
 3808SOL    HW112618   4.205   7.371   4.006  0.7829  0.7144  0.5125
 3808SOL    HW212619   4.245   7.367   3.860 -0.7122  1.7449  0.0465
 3809SOL     OW12620   4.332   4.756   7.347  0.4242  0.0900 -0.0234
 3809SOL    HW112621   4.255   4.810   7.332  0.4157 -0.2795 -1.4565
 3809SOL    HW212622   4.298   4.668   7.363  0.5622 -0.3798 -2.1218
 3810SOL     OW12623   5.735   1.957   2.376 -0.2063  0.9125 -0.7606
 3810SOL    HW112624   5.793   1.992   2.443 -2.7071  0.6116  1.7194
 3810SOL    HW212625   5.774   1.873   2.352  0.5962  0.8904  0.5536
 3811SOL     OW12626   1.985   4.611   0.429  0.0083 -0.0806 -0.1626
 3811SOL    HW112627   2.041   4.605   0.351 -0.1953 -0.9596 -0.2573
 3811SOL    HW212628   2.046   4.602   0.503  0.2698  1.2939 -0.1912
 3812SOL     OW12629   1.617   5.278   1.115 -0.0785 -0.5720 -0.3605
 3812SOL    HW112630   1.587   5.360   1.076  2.4486  0.6538  0.0511
 3812SOL    HW212631   1.634   5.220   1.040  0.3126  0.1232 -0.8257
 3813SOL     OW12632   4.904   5.260   6.063 -0.2352 -0.0660 -0.4404
 3813SOL    HW112633   4.890   5.245   5.970 -0.0008  0.2356 -0.5250
 3813SOL    HW212634   4.922   5.353   6.070 -0.3542 -0.0679 -0.0789
 3814SOL     OW12635   5.626   4.339   1.937  0.1407  0.1267 -0.0157
 3814SOL    HW112636   5.661   4.375   1.855 -0.7958  0.0481 -0.4623
 3814SOL    HW212637   5.598   4.416   1.986  2.0406  0.2934  0.8994
 3815SOL     OW12638   6.773   0.044   1.781  0.0873  0.3657  0.8086
 3815SOL    HW112639   6.779   0.127   1.734 -0.3759 -0.5995 -1.0802
 3815SOL    HW212640   6.703   0.057   1.844 -0.7510  1.0782 -0.2361
 3816SOL     OW12641   6.900   6.549   1.474 -0.1671 -0.3144 -0.0328
 3816SOL    HW112642   6.921   6.465   1.514  2.4521  0.2231 -0.1014
 3816SOL    HW212643   6.919   6.614   1.541  1.7090  0.4283 -1.2048
 3817SOL     OW12644   0.287   7.912   7.644  0.3611 -0.3973  0.0725
 3817SOL    HW112645   0.254   7.829   7.609  1.0744 -1.4951  1.8691
 3817SOL    HW212646   0.346   7.945   7.577 -2.0936  0.1808 -1.9569
 3818SOL     OW12647   1.716   0.035   6.345  0.3208 -0.4660  0.2825
 3818SOL    HW112648   1.707   0.118   6.299 -1.0724 -0.7116  0.0533
 3818SOL    HW212649   1.806   0.007   6.328  1.1634  1.4832  1.2326
 3819SOL     OW12650   1.744   4.703   0.795 -0.4073 -0.4491  0.1889
 3819SOL    HW112651   1.743   4.714   0.890  0.8598  0.3660  0.1422
 3819SOL    HW212652   1.823   4.750   0.767 -2.1669  1.7176 -1.5330
 3820SOL     OW12653   5.716   3.922   7.719 -0.0151 -0.2546 -0.1175
 3820SOL    HW112654   5.762   3.970   7.787 -0.7308  1.2162 -0.6320
 3820SOL    HW212655   5.765   3.942   7.639 -0.2948 -0.4145 -0.3302
 3821SOL     OW12656   5.416   7.707   1.891 -0.3664  0.7392 -0.1200
 3821SOL    HW112657   5.384   7.728   1.804 -0.5394  0.0990 -0.2124
 3821SOL    HW212658   5.511   7.719   1.885 -0.0557 -1.6879 -1.1094
 3822SOL     OW12659   1.461   6.885   6.196 -0.0109  0.0921 -0.5489
 3822SOL    HW112660   1.469   6.968   6.148 -1.0002  1.5828  1.7214
 3822SOL    HW212661   1.375   6.890   6.237  0.3039 -1.6577  0.3854
 3823SOL     OW12662   5.154   0.443   5.657 -0.1561  0.5262 -0.8483
 3823SOL    HW112663   5.079   0.384   5.654 -0.6374  0.9719  0.9456
 3823SOL    HW212664   5.230   0.384   5.660 -0.5662  0.0095 -0.2683
 3824SOL     OW12665   2.029   5.672   5.320 -0.8577  0.2924 -0.3091
 3824SOL    HW112666   1.955   5.708   5.369 -1.1492 -0.4527 -0.1962
 3824SOL    HW212667   2.066   5.606   5.379 -0.2043  0.5394 -0.4346
 3825SOL     OW12668   3.650   6.936   5.004  0.4080 -0.2802 -0.1928
 3825SOL    HW112669   3.579   7.000   4.998  0.2492 -0.3182  0.9775
 3825SOL    HW212670   3.704   6.952   4.926 -0.6370  0.0322 -0.8669
 3826SOL     OW12671   0.950   3.867   2.747  0.0660 -0.2386 -0.4922
 3826SOL    HW112672   0.923   3.923   2.675  0.0637  1.5314  0.8216
 3826SOL    HW212673   0.988   3.927   2.811 -1.7508 -1.4495  1.8697
 3827SOL     OW12674   2.096   2.385   5.081 -0.1586  0.7085  0.2572
 3827SOL    HW112675   2.060   2.298   5.065  1.1266 -0.1051  1.5991
 3827SOL    HW212676   2.019   2.441   5.089 -1.0495 -0.5180  0.5907
 3828SOL     OW12677   4.004   0.016   8.093  0.0859 -0.3924 -0.2092
 3828SOL    HW112678   4.089   0.059   8.087 -0.5102  0.6220 -2.8677
 3828SOL    HW212679   3.945   0.074   8.045 -1.6483 -2.1573 -0.3350
 3829SOL     OW12680   2.110   2.515   5.337  0.2810 -0.0792  0.3430
 3829SOL    HW112681   2.134   2.467   5.258  0.0016 -0.9834  0.7882
 3829SOL    HW212682   2.039   2.573   5.309  1.4736  1.0325 -0.4871
 3830SOL     OW12683   3.051   5.239   1.674 -0.1110  0.0064 -0.2043
 3830SOL    HW112684   3.130   5.226   1.621  0.3654 -0.1308  0.5294
 3830SOL    HW212685   3.056   5.171   1.741  0.3841  1.4724  1.2988
 3831SOL     OW12686   6.144   4.011   4.024 -0.0193  0.1467  0.4242
 3831SOL    HW112687   6.188   3.930   4.050 -1.4900 -0.3101  1.6500
 3831SOL    HW212688   6.119   3.996   3.933 -0.3053 -0.7967  0.6484
 3832SOL     OW12689   0.488   0.369   2.308  0.4722 -0.1590  0.2640
 3832SOL    HW112690   0.471   0.299   2.370  0.2014 -0.4371 -0.1179
 3832SOL    HW212691   0.529   0.326   2.233 -1.3854 -0.2341 -0.7692
 3833SOL     OW12692   7.650   2.133   3.715  0.5062 -0.3399  0.5899
 3833SOL    HW112693   7.638   2.041   3.738  0.0071  0.0961  2.1660
 3833SOL    HW212694   7.571   2.176   3.747  0.1901  0.4900 -1.1618
 3834SOL     OW12695   3.680   4.062   2.029  0.0026  0.5315 -0.0546
 3834SOL    HW112696   3.771   4.057   1.998 -0.0834 -0.3395 -0.2070
 3834SOL    HW212697   3.628   4.036   1.953 -0.3098  0.1095  0.2986
 3835SOL     OW12698   5.889   8.288   6.183 -0.2914  0.2372 -0.1949
 3835SOL    HW112699   5.829   8.325   6.118 -1.3781 -1.8232 -0.4364
 3835SOL    HW212700   5.966   8.344   6.178 -1.4043  1.7709 -1.3116
 3836SOL     OW12701   0.779   5.915   2.312  0.4553  0.0535  0.5173
 3836SOL    HW112702   0.742   5.876   2.392  1.1870  0.0679  0.8706
 3836SOL    HW212703   0.836   5.847   2.277  0.1084  0.0323 -0.0279
 3837SOL     OW12704   0.245   5.285   7.417 -0.1191  0.4825 -0.0043
 3837SOL    HW112705   0.248   5.195   7.385 -0.4281  1.2200 -2.2792
 3837SOL    HW212706   0.332   5.300   7.454  0.0741 -0.6221  0.0115
 3838SOL     OW12707   0.538   1.704   6.918 -0.5003 -0.1738  0.2642
 3838SOL    HW112708   0.555   1.745   6.834 -2.2810  0.1197  0.0136
 3838SOL    HW212709   0.625   1.690   6.956  0.2665  0.8863 -1.0328
 3839SOL     OW12710   3.723   6.377   3.746  0.0677  0.1484  0.4126
 3839SOL    HW112711   3.796   6.434   3.720  0.9925  0.3191  3.0625
 3839SOL    HW212712   3.762   6.290   3.755 -0.4243 -0.0853  0.3045
 3840SOL     OW12713   3.495   6.844   6.569  0.0580 -0.4024 -0.1517
 3840SOL    HW112714   3.423   6.789   6.599  0.4499  0.4999  2.7112
 3840SOL    HW212715   3.458   6.932   6.566 -0.0872 -0.4559 -3.0295
 3841SOL     OW12716   5.472   5.090   2.574 -0.7238  0.1281  0.1567
 3841SOL    HW112717   5.438   5.012   2.619  1.0791  0.1592  1.6885
 3841SOL    HW212718   5.473   5.158   2.641 -0.0826  0.8171 -0.5333
 3842SOL     OW12719   1.414   0.326   1.827  0.4606  0.2389  0.4498
 3842SOL    HW112720   1.407   0.404   1.772  1.7655  0.0451 -0.0276
 3842SOL    HW212721   1.387   0.254   1.770  1.7837  0.0420  0.0252
 3843SOL     OW12722   1.574   2.665   3.753 -0.4253  0.1508  0.0102
 3843SOL    HW112723   1.669   2.670   3.763 -0.3629  0.7286 -0.7155
 3843SOL    HW212724   1.552   2.742   3.700 -1.2118 -0.3392 -0.3956
 3844SOL     OW12725   0.921   0.013   6.681  0.0355 -0.1776  0.4296
 3844SOL    HW112726   0.911  -0.047   6.755  1.0534 -2.4362 -1.1453
 3844SOL    HW212727   0.996   0.068   6.704 -0.3336 -0.0954  1.5041
 3845SOL     OW12728   3.375   7.294   1.760  0.4810 -0.0445 -0.4113
 3845SOL    HW112729   3.420   7.379   1.758  0.1977  0.1193 -0.0616
 3845SOL    HW212730   3.293   7.310   1.715  0.4137 -0.1240 -0.3169
 3846SOL     OW12731   1.379   8.531   0.163  0.0137 -0.0774  0.4717
 3846SOL    HW112732   1.315   8.548   0.093  0.8340  0.3910 -0.1841
 3846SOL    HW212733   1.435   8.462   0.128 -0.3113 -0.7154  1.1746
 3847SOL     OW12734   4.573   2.943   7.469  0.0460 -0.1051  0.3039
 3847SOL    HW112735   4.547   2.873   7.409 -0.1727  0.7771 -0.6400
 3847SOL    HW212736   4.660   2.916   7.499 -0.9392 -1.9387  1.7745
 3848SOL     OW12737   7.302   6.731   4.875  0.1056  0.4163 -0.4201
 3848SOL    HW112738   7.358   6.660   4.907 -0.3571  0.4996  0.6479
 3848SOL    HW212739   7.363   6.801   4.854  0.7020 -0.7547 -2.9023
 3849SOL     OW12740   5.012   8.094   2.568  0.2140 -0.1135  0.5152
 3849SOL    HW112741   5.048   8.015   2.530  0.2069  0.3980 -0.6051
 3849SOL    HW212742   5.057   8.104   2.652  1.6883 -0.2160 -0.2368
 3850SOL     OW12743   3.833   4.111   7.442 -0.1155 -0.2124 -0.7650
 3850SOL    HW112744   3.814   4.065   7.524  0.6293 -1.2951 -1.1719
 3850SOL    HW212745   3.898   4.055   7.398 -0.5467  0.3132 -2.1154
 3851SOL     OW12746   4.232   0.007   3.039  0.4760  0.2717 -0.6647
 3851SOL    HW112747   4.315   0.001   3.086  0.7103 -0.6475 -1.1747
 3851SOL    HW212748   4.251  -0.028   2.952 -0.6956 -0.9736 -0.4600
 3852SOL     OW12749   6.422   4.378   7.339 -0.0096  0.2711 -0.1071
 3852SOL    HW112750   6.442   4.284   7.343 -0.6201  0.0862 -0.9652
 3852SOL    HW212751   6.328   4.381   7.321 -0.6423  1.0930  2.7703
 3853SOL     OW12752   7.967   2.318   7.456 -0.1236 -0.3037  0.9311
 3853SOL    HW112753   8.043   2.328   7.513  2.9906  0.0154 -2.8265
 3853SOL    HW212754   7.929   2.406   7.451  1.5650  0.4357  0.1385
 3854SOL     OW12755   5.471   4.162   7.519 -0.5526 -0.2365 -0.3216
 3854SOL    HW112756   5.428   4.223   7.579  0.1786  0.2238 -0.2604
 3854SOL    HW212757   5.451   4.075   7.555 -0.2599  0.0297  0.4922
 3855SOL     OW12758   7.402   2.736   6.198 -0.6614 -0.3830 -0.0671
 3855SOL    HW112759   7.408   2.641   6.187 -1.0697 -0.2066 -2.2147
 3855SOL    HW212760   7.359   2.747   6.283  0.3264 -2.0757  0.7003
 3856SOL     OW12761   5.839   0.648   3.092 -0.0352 -0.0683 -0.0321
 3856SOL    HW112762   5.760   0.690   3.126  0.1402 -0.8709  1.4470
 3856SOL    HW212763   5.810   0.561   3.065  0.5019 -0.7481  1.4836
 3857SOL     OW12764   4.017   1.136   4.613  0.3358 -0.2059 -0.1256
 3857SOL    HW112765   4.086   1.135   4.546  2.4510 -0.3463  1.9126
 3857SOL    HW212766   4.052   1.082   4.684 -1.7750 -0.0135  1.1540
 3858SOL     OW12767   3.867   8.152   0.633 -0.4886  0.2208  0.0649
 3858SOL    HW112768   3.872   8.145   0.728 -0.7806  0.3119  0.0878
 3858SOL    HW212769   3.850   8.063   0.603  0.2182  0.0837  0.0528
 3859SOL     OW12770   0.499   1.187   6.408 -0.1265  0.1600  0.2087
 3859SOL    HW112771   0.443   1.207   6.483 -0.0964 -1.8644  0.8292
 3859SOL    HW212772   0.585   1.171   6.446  0.2759  0.6801 -0.4593
 3860SOL     OW12773   4.970   0.818   2.420  0.1167  0.0525 -0.0266
 3860SOL    HW112774   4.990   0.778   2.504 -1.7709 -0.4154  0.2356
 3860SOL    HW212775   4.875   0.814   2.413  0.2537 -0.6472 -2.5281
 3861SOL     OW12776   6.788   0.687   1.304  0.4431  0.1222 -0.9552
 3861SOL    HW112777   6.783   0.782   1.304  0.1697  0.1215  0.4783
 3861SOL    HW212778   6.876   0.668   1.272  0.5210  0.8519 -1.1909
 3862SOL     OW12779   2.637   3.975   3.715 -0.5456  0.3819  0.0717
 3862SOL    HW112780   2.667   3.886   3.696 -0.1334  0.8845 -1.8510
 3862SOL    HW212781   2.541   3.967   3.719 -0.5154 -0.1428 -0.1272
 3863SOL     OW12782   4.308   7.701   2.191 -0.0977 -0.2167 -0.3772
 3863SOL    HW112783   4.228   7.746   2.217 -0.7746  0.1644 -2.8221
 3863SOL    HW212784   4.328   7.643   2.264 -2.5839 -0.2907  0.3382
 3864SOL     OW12785   1.463   6.883   7.457  0.2475  0.2339  0.4052
 3864SOL    HW112786   1.387   6.863   7.403  0.1194  0.5150  0.4814
 3864SOL    HW212787   1.531   6.910   7.395  0.1370  0.4413  0.3741
 3865SOL     OW12788   0.696   4.326   5.938 -0.0361  0.1617 -0.3806
 3865SOL    HW112789   0.691   4.306   5.845  2.2438 -0.9078 -0.3505
 3865SOL    HW212790   0.658   4.250   5.982 -1.4912  0.8448 -0.4024
 3866SOL     OW12791   0.062   4.220   3.108  0.2522 -0.4886 -0.4016
 3866SOL    HW112792   0.081   4.137   3.066  1.5247 -1.6168  2.1587
 3866SOL    HW212793   0.147   4.251   3.139 -0.1286  2.0240 -1.6373
 3867SOL     OW12794   0.397   3.799   5.157 -0.5755 -0.1609 -0.0396
 3867SOL    HW112795   0.347   3.717   5.156 -0.5318 -0.1891 -1.0328
 3867SOL    HW212796   0.443   3.798   5.240  1.6211 -2.5071 -1.1656
 3868SOL     OW12797   7.718   2.349   8.167 -0.0063  0.0484  0.2655
 3868SOL    HW112798   7.778   2.422   8.177 -0.2239  0.2217  0.3174
 3868SOL    HW212799   7.676   2.341   8.253  1.2531 -1.2377  0.8170
 3869SOL     OW12800   0.342   4.333   7.273 -0.0942 -1.0986  0.1186
 3869SOL    HW112801   0.329   4.262   7.210  1.1181 -1.3196  0.0980
 3869SOL    HW212802   0.262   4.333   7.326 -0.8876 -1.2810 -1.0475
 3870SOL     OW12803   2.713   1.274   1.835 -0.2903  0.0923  0.3413
 3870SOL    HW112804   2.789   1.282   1.894 -0.7578  2.2817  0.7116
 3870SOL    HW212805   2.638   1.267   1.894 -0.4505 -1.8735 -0.0293
 3871SOL     OW12806   6.548   2.277   8.147  0.3517  0.2830  0.2572
 3871SOL    HW112807   6.513   2.366   8.153 -1.2920 -0.2020 -1.2046
 3871SOL    HW212808   6.500   2.227   8.212  0.0279  0.1174 -0.1047
 3872SOL     OW12809   1.150   7.426   6.833 -0.0761 -0.1417 -0.5695
 3872SOL    HW112810   1.231   7.458   6.872 -0.8911  1.1572  0.0999
 3872SOL    HW212811   1.171   7.417   6.740  0.6793  0.7023 -0.4958
 3873SOL     OW12812   6.434   3.931   2.760 -0.4880 -0.1862 -0.0806
 3873SOL    HW112813   6.407   3.917   2.670  0.2813 -1.2224 -0.1696
 3873SOL    HW212814   6.529   3.943   2.755 -0.4910  0.1842  0.5501
 3874SOL     OW12815   3.905   0.368   0.116  0.3604 -0.2725 -0.0961
 3874SOL    HW112816   3.939   0.458   0.117 -2.0141  0.7091  0.9673
 3874SOL    HW212817   3.880   0.351   0.207  1.2112 -2.2328 -0.1861
 3875SOL     OW12818   7.199   4.101   4.150 -0.6544 -0.9131 -0.1436
 3875SOL    HW112819   7.119   4.054   4.175 -1.6859  1.2415  0.8965
 3875SOL    HW212820   7.212   4.165   4.220  2.0066 -1.1786 -0.3131
 3876SOL     OW12821   7.057   0.891   4.097  0.0861 -0.1816 -0.0051
 3876SOL    HW112822   7.079   0.956   4.030  0.3129  0.3307  0.5674
 3876SOL    HW212823   7.042   0.810   4.047 -1.2148  0.5314 -0.8266
 3877SOL     OW12824   3.777   2.128   6.168  0.0067 -0.5078 -0.1013
 3877SOL    HW112825   3.848   2.137   6.104  0.5206 -1.7808  0.2696
 3877SOL    HW212826   3.820   2.099   6.248 -0.6918  0.6064  0.7159
 3878SOL     OW12827   1.981   8.129   8.306  0.4338  0.4066 -0.5293
 3878SOL    HW112828   1.974   8.074   8.228  1.1696 -0.7693  0.1919
 3878SOL    HW212829   1.891   8.151   8.329  0.1087 -0.6462 -0.7481
 3879SOL     OW12830   1.469   0.101   8.307  0.0934  0.2200  0.0779
 3879SOL    HW112831   1.485   0.012   8.277 -1.4272  0.0290 -0.2155
 3879SOL    HW212832   1.545   0.151   8.275  0.6316 -0.8253 -0.3128
 3880SOL     OW12833   5.120   6.976   0.202 -0.2601 -0.9478 -0.0182
 3880SOL    HW112834   5.138   7.005   0.112  3.0398 -1.5939  0.2990
 3880SOL    HW212835   5.135   6.881   0.199 -0.6597 -1.0577  1.1173
 3881SOL     OW12836   5.217   1.733   5.647 -0.1823 -0.1895  0.7648
 3881SOL    HW112837   5.140   1.713   5.700  0.5605 -1.3376  1.4704
 3881SOL    HW212838   5.236   1.825   5.665 -1.2543  0.0373  0.7490
 3882SOL     OW12839   6.274   3.740   1.585 -0.2115  0.0863 -0.0777
 3882SOL    HW112840   6.180   3.757   1.582 -0.5046 -1.5670 -1.1837
 3882SOL    HW212841   6.300   3.729   1.493  0.0867 -4.2063  0.3241
 3883SOL     OW12842   6.917   3.481   1.682 -0.0240  0.0277 -0.0609
 3883SOL    HW112843   6.996   3.466   1.734 -0.2187 -2.5084 -0.3872
 3883SOL    HW212844   6.858   3.409   1.705 -2.7795  2.4188  0.9996
 3884SOL     OW12845   2.117   3.629   7.005 -0.3530  0.4742  0.4234
 3884SOL    HW112846   2.138   3.723   7.001 -0.5949  0.4976 -0.6132
 3884SOL    HW212847   2.189   3.590   7.055  0.8338  0.9172 -0.8871
 3885SOL     OW12848   3.569   7.763   6.488 -0.1257 -0.4730 -0.1827
 3885SOL    HW112849   3.655   7.722   6.493 -0.1886 -0.4698  2.7899
 3885SOL    HW212850   3.508   7.689   6.490 -0.1836 -0.4198  1.2991
 3886SOL     OW12851   6.306   4.625   0.085  0.0518 -0.3610  0.3989
 3886SOL    HW112852   6.230   4.671   0.120 -0.8798 -1.6151  0.0557
 3886SOL    HW212853   6.273   4.540   0.057  1.5207 -0.8206 -0.0395
 3887SOL     OW12854   0.992   0.217   1.853  0.1593 -0.1540  0.1641
 3887SOL    HW112855   0.958   0.295   1.810  0.8182  0.3143  0.4918
 3887SOL    HW212856   1.056   0.249   1.916 -0.5557 -0.8443  1.2878
 3888SOL     OW12857   4.634   5.529   5.441 -0.0952 -0.5080 -0.2646
 3888SOL    HW112858   4.571   5.488   5.500 -1.6668 -0.5144 -1.8452
 3888SOL    HW212859   4.621   5.484   5.358 -2.4675  3.4273 -2.3718
 3889SOL     OW12860   5.417   4.726   0.467  0.3024  0.0777  0.1439
 3889SOL    HW112861   5.337   4.719   0.518  0.2675 -0.4839  0.0194
 3889SOL    HW212862   5.392   4.775   0.389 -0.0634 -0.6190 -0.1805
 3890SOL     OW12863   3.717   1.199   8.512 -0.2180 -0.9161  0.3023
 3890SOL    HW112864   3.662   1.255   8.568 -0.1192  1.3050 -1.6903
 3890SOL    HW212865   3.656   1.162   8.448 -0.1778 -2.6979  1.2368
 3891SOL     OW12866   6.961   8.368   4.835  0.4369  0.7882  0.1666
 3891SOL    HW112867   6.932   8.362   4.926 -1.0055 -0.8292 -0.3388
 3891SOL    HW212868   6.884   8.400   4.788 -0.2759 -2.3505 -1.0311
 3892SOL     OW12869   0.498   3.144   7.735 -0.4994  0.6704 -0.3586
 3892SOL    HW112870   0.489   3.204   7.661 -0.4379  0.7486 -0.3026
 3892SOL    HW212871   0.485   3.057   7.696  0.8117  0.6076 -0.7066
 3893SOL     OW12872   0.588   3.898   5.360 -0.2683 -0.0964 -0.4813
 3893SOL    HW112873   0.582   3.920   5.453 -0.9597  0.3580 -0.6187
 3893SOL    HW212874   0.675   3.927   5.333  0.4822 -1.5344  0.3381
 3894SOL     OW12875   4.697   3.839   2.890 -0.3279  0.6282  0.0761
 3894SOL    HW112876   4.656   3.921   2.918 -0.8246  0.6338 -0.6543
 3894SOL    HW212877   4.747   3.811   2.967 -2.0683  0.3684  1.1693
 3895SOL     OW12878   5.357   4.939   8.561  0.2135  0.1739  0.7032
 3895SOL    HW112879   5.399   4.870   8.510 -0.5446  0.3133 -0.1236
 3895SOL    HW212880   5.415   5.014   8.551  1.3105 -0.4443  2.0158
 3896SOL     OW12881   5.188   1.138   6.307  0.0733  0.1229  0.3975
 3896SOL    HW112882   5.106   1.141   6.357  0.0703  0.1032  0.3940
 3896SOL    HW212883   5.160   1.132   6.216  0.0767 -0.0519  0.4060
 3897SOL     OW12884   5.637   2.767   6.111 -0.4073 -0.0313 -0.2921
 3897SOL    HW112885   5.594   2.682   6.122  0.4674 -0.4639 -0.1032
 3897SOL    HW212886   5.723   2.755   6.151 -0.1766  0.8679 -0.5061
 3898SOL     OW12887   8.216   1.354   5.240 -0.7401  0.3916  0.1817
 3898SOL    HW112888   8.197   1.341   5.147  0.7444 -1.1476  0.0590
 3898SOL    HW212889   8.150   1.302   5.286 -1.6063  1.3181  0.0386
 3899SOL     OW12890   0.941   7.902   1.481 -0.0151 -0.3363  0.0799
 3899SOL    HW112891   1.036   7.897   1.469 -0.1154 -1.3598 -0.3434
 3899SOL    HW212892   0.927   7.878   1.572  0.2663  1.7033  0.7166
 3900SOL     OW12893   7.662   7.275   4.311  0.2128  0.0792  0.2638
 3900SOL    HW112894   7.692   7.233   4.392 -0.3246  2.4281  1.7876
 3900SOL    HW212895   7.740   7.281   4.257  0.7775 -0.8038  0.9446
 3901SOL     OW12896   2.796   6.090   7.220 -0.2366  0.4208  0.2256
 3901SOL    HW112897   2.735   6.150   7.177 -0.1874  1.4540  1.5425
 3901SOL    HW212898   2.769   6.003   7.190 -1.2004  0.9848 -0.6189
 3902SOL     OW12899   5.280   4.283   6.319 -0.4135  0.6251 -0.3961
 3902SOL    HW112900   5.188   4.309   6.327  0.3289  3.0510  1.3750
 3902SOL    HW212901   5.324   4.362   6.286  1.4354  0.4675  1.5197
 3903SOL     OW12902   4.514   2.783   1.695  0.0498 -0.2438  0.4580
 3903SOL    HW112903   4.572   2.741   1.632 -0.8533  0.4392 -0.8618
 3903SOL    HW212904   4.429   2.743   1.681 -0.6054  1.2586 -0.1471
 3904SOL     OW12905   8.342   6.799   2.295 -0.0416 -0.6076  0.1026
 3904SOL    HW112906   8.296   6.848   2.363 -0.2301  0.6113 -0.8930
 3904SOL    HW212907   8.410   6.858   2.263  1.5357 -1.9664  0.7508
 3905SOL     OW12908   6.646   2.632   6.450  0.3135 -0.0371  0.1780
 3905SOL    HW112909   6.629   2.550   6.495 -1.2624  0.2672  0.1808
 3905SOL    HW212910   6.601   2.699   6.503 -2.8377  0.1722 -2.4522
 3906SOL     OW12911   8.331   4.223   8.010 -0.1655  0.7474  0.3043
 3906SOL    HW112912   8.273   4.163   8.058 -0.4653  1.2940  0.6422
 3906SOL    HW212913   8.376   4.167   7.947 -1.2804  0.3557 -0.1751
 3907SOL     OW12914   2.239   6.994   6.840 -0.2872 -0.3616 -0.0164
 3907SOL    HW112915   2.280   7.056   6.900 -0.0235  0.6776 -1.2087
 3907SOL    HW212916   2.157   6.969   6.883 -0.1298  0.3932  0.7528
 3908SOL     OW12917   4.174   6.197   6.291  0.0680 -0.9235 -0.3178
 3908SOL    HW112918   4.121   6.270   6.260 -0.7130 -1.3993 -0.1417
 3908SOL    HW212919   4.141   6.180   6.380  2.0066  0.1848  0.6662
 3909SOL     OW12920   5.139   4.115   3.557 -0.2031  0.4888 -0.2237
 3909SOL    HW112921   5.220   4.155   3.588 -0.7468  1.9748 -0.6722
 3909SOL    HW212922   5.083   4.108   3.634 -0.2073  0.8420 -0.1961
 3910SOL     OW12923   0.563   3.767   7.371 -0.2362  0.2693 -0.1092
 3910SOL    HW112924   0.480   3.734   7.406  1.1153 -3.6161 -0.0579
 3910SOL    HW212925   0.578   3.715   7.292  3.1139 -0.8005  1.0518
 3911SOL     OW12926   6.759   3.093   4.772  0.2578 -0.2830 -0.4433
 3911SOL    HW112927   6.690   3.032   4.746  0.1702 -1.8260  2.8748
 3911SOL    HW212928   6.821   3.040   4.822  0.9507  2.0481  1.3739
 3912SOL     OW12929   7.981   3.420   4.744 -0.2809  0.6225  0.3836
 3912SOL    HW112930   7.989   3.453   4.654 -0.0381 -0.0446  0.1537
 3912SOL    HW212931   7.994   3.497   4.799  1.7643  0.6855 -0.0987
 3913SOL     OW12932   7.210   0.125   2.982 -0.2210 -0.4756  0.0680
 3913SOL    HW112933   7.202   0.217   3.008 -0.0576 -0.3955 -0.1579
 3913SOL    HW212934   7.284   0.092   3.033 -1.1037 -0.8467  1.1435
 3914SOL     OW12935   1.856   0.588   0.795  0.0456 -0.3387 -0.1086
 3914SOL    HW112936   1.787   0.654   0.789 -0.2592 -0.6184  0.3102
 3914SOL    HW212937   1.809   0.505   0.800  0.4275 -0.6054 -0.7744
 3915SOL     OW12938   0.956   0.897   4.847  0.1215 -0.7507 -0.2591
 3915SOL    HW112939   0.961   0.915   4.941  0.7079  0.3010 -0.4836
 3915SOL    HW212940   1.026   0.833   4.832  1.2940  0.5020 -0.2910
 3916SOL     OW12941   0.941   8.175   3.777  0.6137 -0.1373  0.3624
 3916SOL    HW112942   0.868   8.171   3.715  1.2176 -0.7763 -0.3378
 3916SOL    HW212943   0.960   8.083   3.798  1.2570  0.0166  0.4860
 3917SOL     OW12944   5.382   7.287   1.762 -0.1453  0.2276 -0.0988
 3917SOL    HW112945   5.290   7.264   1.749 -0.2188 -1.3885  2.5578
 3917SOL    HW212946   5.381   7.354   1.831  0.6926 -0.4452  0.5863
 3918SOL     OW12947   1.371   0.641   8.516 -0.1504 -0.6509  0.1870
 3918SOL    HW112948   1.401   0.674   8.601  1.1522 -0.2311 -0.4043
 3918SOL    HW212949   1.451   0.630   8.466 -0.9089 -0.8560 -1.0120
 3919SOL     OW12950   0.311   3.713   5.559 -0.0895 -0.9221  0.3074
 3919SOL    HW112951   0.295   3.662   5.480  0.2483 -1.1650  0.3913
 3919SOL    HW212952   0.243   3.779   5.560  1.4389  0.8142 -1.5963
 3920SOL     OW12953   7.358   6.087   2.181 -0.2526 -0.1865 -0.0574
 3920SOL    HW112954   7.274   6.084   2.227 -0.9113 -0.4275 -1.2150
 3920SOL    HW212955   7.356   6.010   2.124  1.4821 -1.1260  1.0737
 3921SOL     OW12956   6.059   2.700   0.118 -0.6027 -0.3107 -0.3893
 3921SOL    HW112957   6.056   2.778   0.173 -2.1400  0.9932 -2.2098
 3921SOL    HW212958   5.973   2.660   0.128 -0.3750 -0.8938 -0.7011
 3922SOL     OW12959   4.638   7.513   5.527 -1.1502  0.4341  0.3221
 3922SOL    HW112960   4.696   7.492   5.600  1.2072  0.8607 -1.3155
 3922SOL    HW212961   4.594   7.594   5.554 -1.4493 -0.1932  1.8273
 3923SOL     OW12962   6.104   1.334   6.505 -0.3168 -0.4841 -0.0095
 3923SOL    HW112963   6.127   1.420   6.469 -0.7141  0.5827  2.1479
 3923SOL    HW212964   6.144   1.272   6.445  1.0857  1.2184 -0.9220
 3924SOL     OW12965   7.509   6.352   0.711 -0.0239 -0.3066 -0.5153
 3924SOL    HW112966   7.508   6.390   0.623 -1.0401 -0.0274 -0.3874
 3924SOL    HW212967   7.600   6.325   0.724  0.5114  1.1618 -1.0026
 3925SOL     OW12968   6.757   7.611   4.165 -0.3829 -0.4200 -0.1349
 3925SOL    HW112969   6.718   7.698   4.152  0.0946 -0.0858  0.6292
 3925SOL    HW212970   6.682   7.555   4.182 -0.7813 -0.3479 -1.4792
 3926SOL     OW12971   3.544   0.129   2.639 -0.7390  0.0446  0.2419
 3926SOL    HW112972   3.637   0.150   2.651 -0.5823  0.2513 -1.1090
 3926SOL    HW212973   3.545   0.045   2.593 -1.2440 -0.3212  0.8966
 3927SOL     OW12974   0.178   0.280   0.609  0.3626  0.3934 -0.0670
 3927SOL    HW112975   0.166   0.373   0.624 -0.4046  0.4022 -0.6874
 3927SOL    HW212976   0.144   0.264   0.521  2.6408 -0.0735 -0.9526
 3928SOL     OW12977   8.310   3.153   5.152  0.2640  0.0196  0.0996
 3928SOL    HW112978   8.393   3.190   5.181 -0.4064 -0.7528  3.4786
 3928SOL    HW212979   8.323   3.058   5.157  0.0399 -0.1813 -2.2896
 3929SOL     OW12980   7.615   5.067   4.182  0.1458  0.6765 -0.5171
 3929SOL    HW112981   7.526   5.031   4.175  0.4063 -0.4883  1.3564
 3929SOL    HW212982   7.612   5.125   4.258  1.3356 -0.7338  0.6883
 3930SOL     OW12983   3.140   4.634   8.289 -0.0672 -0.4522 -0.2266
 3930SOL    HW112984   3.215   4.575   8.282 -0.7790 -1.5238  0.7695
 3930SOL    HW212985   3.144   4.667   8.379  1.5582  2.8194 -1.3269
 3931SOL     OW12986   4.126   4.056   3.121 -0.1509 -0.0711  0.2400
 3931SOL    HW112987   4.053   4.008   3.160 -1.0651  1.0424 -0.0439
 3931SOL    HW212988   4.186   4.073   3.194  0.0986 -1.4224  0.3816
 3932SOL     OW12989   2.824   4.600   6.439 -0.2281 -0.5708 -0.3904
 3932SOL    HW112990   2.838   4.559   6.354  0.5250 -0.8307 -0.1511
 3932SOL    HW212991   2.876   4.681   6.435 -0.5844 -0.3369 -0.3528
 3933SOL     OW12992   7.201   6.429   6.109  0.1763  0.2806  0.0054
 3933SOL    HW112993   7.224   6.508   6.157 -0.5807 -1.6808  4.0624
 3933SOL    HW212994   7.284   6.382   6.098  0.2240  0.2483  0.4715
 3934SOL     OW12995   6.984   4.758   7.158 -0.2530  1.0270 -0.5447
 3934SOL    HW112996   7.002   4.749   7.251  0.2620  0.8144 -0.6610
 3934SOL    HW212997   6.895   4.793   7.153 -0.5337  0.4103  0.0138
 3935SOL     OW12998   6.315   0.442   3.699 -0.1001  0.0051 -0.1737
 3935SOL    HW112999   6.363   0.443   3.781  2.4022  1.7141 -1.5192
 3935SOL    HW213000   6.226   0.469   3.722  0.4406  0.0541  1.9915
 3936SOL     OW13001   2.754   5.083   5.845  0.5614 -0.0258  0.3492
 3936SOL    HW113002   2.671   5.082   5.796  0.0755  2.3127  1.0077
 3936SOL    HW213003   2.782   4.992   5.846 -1.5759 -0.7618 -0.6211
 3937SOL     OW13004   3.019   4.183   4.343 -0.0173  0.2895 -0.1270
 3937SOL    HW113005   3.108   4.176   4.376 -0.3887  0.3894  0.9714
 3937SOL    HW213006   2.975   4.241   4.406 -1.7111 -2.3252  1.3021
 3938SOL     OW13007   4.851   5.445   3.025  0.0358 -0.6790 -0.1768
 3938SOL    HW113008   4.937   5.450   2.982  1.2579  0.7320  2.2288
 3938SOL    HW213009   4.870   5.406   3.111 -1.3474  1.4228  1.1620
 3939SOL     OW13010   0.399   1.714   0.870  0.5668 -1.1083 -0.6035
 3939SOL    HW113011   0.476   1.768   0.854 -0.1763  0.4355  0.7448
 3939SOL    HW213012   0.396   1.702   0.965 -1.2573 -0.3888 -0.5050
 3940SOL     OW13013   3.482   3.463   7.372  0.0844 -0.2035 -0.1240
 3940SOL    HW113014   3.578   3.463   7.379 -0.0199  0.0535  2.1919
 3940SOL    HW213015   3.461   3.548   7.333  0.7915 -0.2807 -0.6929
 3941SOL     OW13016   0.530   6.650   8.526 -0.1439  0.1294  0.6032
 3941SOL    HW113017   0.594   6.621   8.462 -0.9592  0.0912 -0.2114
 3941SOL    HW213018   0.551   6.742   8.541 -1.2492  0.7701 -1.3745
 3942SOL     OW13019   0.651   1.384   4.638  0.6012  0.6007  0.0921
 3942SOL    HW113020   0.710   1.327   4.687  0.4074  1.3971  1.2937
 3942SOL    HW213021   0.574   1.330   4.620  1.3022 -0.1614 -0.6888
 3943SOL     OW13022   0.639   2.955   0.065  0.2994 -0.1156  0.2984
 3943SOL    HW113023   0.667   3.046   0.071  0.0283 -0.0159  0.0551
 3943SOL    HW213024   0.655   2.930  -0.026 -0.2895 -0.0929  0.1867
 3944SOL     OW13025   4.345   6.958   5.785  0.4050 -0.2178  0.5310
 3944SOL    HW113026   4.438   6.969   5.804  0.1504  0.3698  1.4704
 3944SOL    HW213027   4.340   6.961   5.689  1.3396 -0.2101  0.4693
 3945SOL     OW13028   5.909   0.348   6.568 -0.1636 -0.3370  0.2811
 3945SOL    HW113029   5.892   0.299   6.649  0.5555 -4.7634 -1.9166
 3945SOL    HW213030   5.823   0.356   6.527 -0.2188 -0.1719  0.4268
 3946SOL     OW13031   0.780   2.189   3.144  0.6142  0.7101 -0.0463
 3946SOL    HW113032   0.778   2.116   3.081  2.2015 -0.2370  0.9293
 3946SOL    HW213033   0.862   2.234   3.126  0.3999  1.2955  0.4196
 3947SOL     OW13034   0.266   1.006   0.551  0.1190 -0.3361  0.1789
 3947SOL    HW113035   0.233   0.965   0.631 -0.1900  1.4293  0.9861
 3947SOL    HW213036   0.359   1.023   0.570  0.1813 -0.4137 -0.0551
 3948SOL     OW13037   8.115   7.510   4.227  0.2975 -0.1200 -0.3981
 3948SOL    HW113038   8.144   7.584   4.173  1.1111  0.3752  0.6865
 3948SOL    HW213039   8.189   7.451   4.229  0.2273 -0.1908  0.0850
 3949SOL     OW13040   4.996   1.597   7.812  0.3041 -0.1215 -0.5695
 3949SOL    HW113041   5.078   1.632   7.845  0.8055 -1.2973 -0.5224
 3949SOL    HW213042   5.013   1.504   7.799 -0.2568  0.0239 -2.8761
 3950SOL     OW13043   5.673   3.485   3.787 -0.0858  0.4197 -0.0405
 3950SOL    HW113044   5.685   3.558   3.847 -0.1004 -1.1995  2.0582
 3950SOL    HW213045   5.718   3.511   3.707  0.4392  2.4402  0.8670
 3951SOL     OW13046   3.196   4.303   1.625  0.1300  0.0040 -0.4627
 3951SOL    HW113047   3.138   4.359   1.676 -2.8535 -1.1216 -2.2895
 3951SOL    HW213048   3.188   4.217   1.666  0.3414 -0.1989 -0.8387
 3952SOL     OW13049   1.128   0.324   3.647  0.3093 -0.3127 -0.6491
 3952SOL    HW113050   1.144   0.417   3.661 -0.7024 -0.3070  0.8065
 3952SOL    HW213051   1.040   0.320   3.610  0.3825 -0.6835 -0.7894
 3953SOL     OW13052   4.691   6.055   1.423 -0.3848 -0.2490 -0.6380
 3953SOL    HW113053   4.608   6.008   1.431 -1.7167  2.2119  1.3170
 3953SOL    HW213054   4.666   6.146   1.408  1.9993  0.4603 -0.7100
 3954SOL     OW13055   0.529   1.296   7.040  0.2778  0.7514 -0.3891
 3954SOL    HW113056   0.558   1.298   6.948  0.7078 -1.1469 -0.3486
 3954SOL    HW213057   0.440   1.261   7.036  0.9212 -1.0705 -0.0294
 3955SOL     OW13058   7.237   3.960   8.271  0.2040 -0.5843  0.4265
 3955SOL    HW113059   7.169   3.892   8.268 -0.1232 -0.2233 -2.0547
 3955SOL    HW213060   7.198   4.035   8.225  1.2841  0.6145  1.4127
 3956SOL     OW13061   1.075   0.742   3.139 -0.0535 -0.0521  0.2175
 3956SOL    HW113062   1.157   0.744   3.089 -0.8753 -1.0804 -1.2609
 3956SOL    HW213063   1.096   0.693   3.218  1.0375  0.7160  0.4183
 3957SOL     OW13064   1.436   2.754   2.970  0.4232  0.3746  0.7019
 3957SOL    HW113065   1.532   2.753   2.972  0.4170  0.4370  2.3824
 3957SOL    HW213066   1.413   2.841   3.002 -0.2017  0.0533  1.1290
 3958SOL     OW13067   1.272   0.031   0.995  0.0598 -0.1703 -0.4362
 3958SOL    HW113068   1.248   0.082   1.073 -0.3877  2.7477 -2.3203
 3958SOL    HW213069   1.366   0.014   1.006 -0.3377 -1.4094  1.5178
 3959SOL     OW13070   7.717   0.758   4.312  0.0927  0.5389 -0.6192
 3959SOL    HW113071   7.787   0.717   4.261 -0.0060  0.8207 -0.9876
 3959SOL    HW213072   7.677   0.820   4.252 -0.6962  0.1419 -0.5117
 3960SOL     OW13073   7.004   8.049   8.327  0.5032  0.2859 -0.3320
 3960SOL    HW113074   6.910   8.036   8.341  0.8582  0.3778  2.8071
 3960SOL    HW213075   7.046   8.003   8.400  2.9398  0.0442 -1.7942
 3961SOL     OW13076   1.863   0.989   6.567  0.0551  0.1302 -0.3002
 3961SOL    HW113077   1.840   1.069   6.519  0.4899 -0.3682 -1.3778
 3961SOL    HW213078   1.786   0.969   6.619 -0.3878  0.7749 -0.6888
 3962SOL     OW13079   3.482   4.479   3.139 -0.0925 -0.2955 -0.2624
 3962SOL    HW113080   3.510   4.389   3.155 -0.3581 -0.8346 -2.6039
 3962SOL    HW213081   3.511   4.499   3.050 -2.5743  0.8973 -0.8970
 3963SOL     OW13082   5.734   0.642   1.966  0.2152  0.1903  0.4157
 3963SOL    HW113083   5.759   0.619   1.877 -0.8256  1.3267 -0.2045
 3963SOL    HW213084   5.642   0.616   1.972 -0.3517  2.0748  0.4040
 3964SOL     OW13085   4.147   6.042   4.846 -0.7663  0.5642  0.2259
 3964SOL    HW113086   4.101   5.982   4.905 -0.0743  0.2429  0.4398
 3964SOL    HW213087   4.080   6.067   4.782 -0.5662 -2.2041 -1.2523
 3965SOL     OW13088   0.215   5.212   5.638 -0.1644 -0.0902  0.0897
 3965SOL    HW113089   0.143   5.184   5.582 -0.2650 -1.3692  0.8205
 3965SOL    HW213090   0.172   5.252   5.713 -0.0297  1.6106 -0.7050
 3966SOL     OW13091   7.876   4.711   2.038 -0.8098 -0.1184 -0.0855
 3966SOL    HW113092   7.943   4.666   1.987 -1.3989 -1.2110  0.0777
 3966SOL    HW213093   7.814   4.642   2.063 -0.1211  0.2026  2.8130
 3967SOL     OW13094   0.123   8.268   7.071 -0.4192  0.1836 -0.0085
 3967SOL    HW113095   0.098   8.213   7.145 -1.1429  0.4748 -0.0330
 3967SOL    HW213096   0.148   8.351   7.111  1.6571 -0.4441  0.1232
 3968SOL     OW13097   0.700   8.441   2.953  0.0624 -0.1027 -0.2985
 3968SOL    HW113098   0.654   8.392   2.885 -0.5835  2.1138 -1.5851
 3968SOL    HW213099   0.640   8.439   3.028 -0.7850  0.2088 -0.9457
 3969SOL     OW13100   2.659   2.642   3.355 -1.3759 -0.3047  0.2783
 3969SOL    HW113101   2.708   2.724   3.363 -0.5643 -0.8491  1.1082
 3969SOL    HW213102   2.718   2.575   3.390 -2.2922 -1.1455  0.2674
 3970SOL     OW13103   5.906   6.450   6.354  0.7243 -0.0749 -0.5244
 3970SOL    HW113104   5.855   6.376   6.322 -1.1839 -0.7216  3.3642
 3970SOL    HW213105   5.865   6.527   6.314  0.1091 -0.9101 -1.5387
 3971SOL     OW13106   6.841   8.165   3.945  0.3030 -0.7002 -0.3116
 3971SOL    HW113107   6.915   8.225   3.945 -1.0540  1.1859  2.0521
 3971SOL    HW213108   6.877   8.082   3.977  1.4257  0.1489  0.6973
 3972SOL     OW13109   0.737   1.335   8.458  0.6378  0.1041 -0.6169
 3972SOL    HW113110   0.754   1.366   8.368 -1.0478 -0.3574 -1.1219
 3972SOL    HW213111   0.678   1.261   8.447 -2.4286  2.1156  1.0245
 3973SOL     OW13112   7.524   4.664   2.320  0.1589  0.4463 -0.0651
 3973SOL    HW113113   7.571   4.591   2.278  0.2762  0.7418 -0.4493
 3973SOL    HW213114   7.470   4.622   2.387 -0.5227 -0.1146 -0.9313
 3974SOL     OW13115   1.846   8.589   6.973  0.0273 -0.6459 -0.6876
 3974SOL    HW113116   1.937   8.583   6.942  0.1009  0.9287 -0.8453
 3974SOL    HW213117   1.822   8.499   6.993  2.0428 -0.9846  0.5273
 3975SOL     OW13118   6.368   2.722   3.114  0.1114  0.5078  0.1818
 3975SOL    HW113119   6.392   2.798   3.060  1.3320  0.6483  0.8819
 3975SOL    HW213120   6.422   2.731   3.193  1.6186 -2.0164 -0.4447
 3976SOL     OW13121   5.990   0.737   3.557 -0.4168 -0.5143 -0.3589
 3976SOL    HW113122   5.898   0.761   3.545  0.0083  0.6963 -1.3978
 3976SOL    HW213123   5.997   0.649   3.519 -0.9084 -0.1423 -1.3415
 3977SOL     OW13124   4.455   6.462   5.863 -0.2202  0.1814 -0.3521
 3977SOL    HW113125   4.451   6.367   5.870  0.4279 -0.0233 -2.2626
 3977SOL    HW213126   4.366   6.488   5.838 -0.0864 -0.0762 -1.1284
 3978SOL     OW13127   2.657   4.915   7.251  0.4335 -0.4434 -0.2910
 3978SOL    HW113128   2.570   4.953   7.249  0.6305  0.0461  0.2336
 3978SOL    HW213129   2.666   4.869   7.167  0.5570  1.4675 -1.3615
 3979SOL     OW13130   1.450   3.414   6.046  0.5246  0.0565 -0.5848
 3979SOL    HW113131   1.377   3.372   6.001 -0.1684  0.8902 -0.2734
 3979SOL    HW213132   1.425   3.507   6.050  0.3135 -0.0459  1.9446
 3980SOL     OW13133   5.058   4.187   5.753 -0.8922 -0.1516 -0.3949
 3980SOL    HW113134   5.037   4.267   5.801 -1.9869 -0.8313  0.2955
 3980SOL    HW213135   5.065   4.215   5.662  0.0228  0.9442 -0.0156
 3981SOL     OW13136   5.852   4.908   7.187 -0.3566 -0.3007  0.0098
 3981SOL    HW113137   5.905   4.835   7.155 -0.6124  0.9195 -3.6391
 3981SOL    HW213138   5.763   4.887   7.160 -0.5677  0.9601 -0.3434
 3982SOL     OW13139   1.778   4.611   2.313 -0.1551 -0.5965  0.1229
 3982SOL    HW113140   1.854   4.566   2.351  0.6561  1.2349  0.7938
 3982SOL    HW213141   1.721   4.628   2.388 -0.6479 -0.8573 -0.1884
 3983SOL     OW13142   4.672   2.656   6.942  0.0114  0.1744 -0.2550
 3983SOL    HW113143   4.585   2.618   6.957 -0.3004  1.0303  0.1691
 3983SOL    HW213144   4.723   2.631   7.020  0.6443 -1.6601 -1.2080
 3984SOL     OW13145   4.045   0.688   5.468 -0.6148  0.2228  0.0452
 3984SOL    HW113146   4.126   0.708   5.421 -0.2656 -1.0280  0.0872
 3984SOL    HW213147   3.989   0.764   5.452  0.0058  0.4366 -1.2479
 3985SOL     OW13148   5.319   7.920   4.727  0.0925 -0.0662  0.5549
 3985SOL    HW113149   5.376   7.846   4.707 -1.0448 -1.3005  1.7294
 3985SOL    HW213150   5.303   7.961   4.641 -0.1344 -1.8192 -0.2743
 3986SOL     OW13151   5.751   4.159   3.650 -0.2461  0.2411 -0.5504
 3986SOL    HW113152   5.820   4.201   3.598 -0.6942  0.2258 -1.1714
 3986SOL    HW213153   5.744   4.212   3.729  1.1486 -0.3117 -0.0223
 3987SOL     OW13154   8.108   6.180   6.948  0.2277  0.4051  0.2308
 3987SOL    HW113155   8.159   6.238   6.893 -1.1014  0.9768 -0.4485
 3987SOL    HW213156   8.116   6.094   6.906  0.6262  0.4846  0.1376
 3988SOL     OW13157   7.954   6.841   2.316  0.5211  0.3889 -0.0244
 3988SOL    HW113158   7.975   6.782   2.388  1.2481 -0.1972 -0.6978
 3988SOL    HW213159   7.996   6.923   2.339  0.5796  0.2664  0.3133
 3989SOL     OW13160   4.561   6.324   1.901  0.2643  0.2203  0.2663
 3989SOL    HW113161   4.630   6.387   1.884  0.3960 -0.1291 -0.5221
 3989SOL    HW213162   4.499   6.371   1.957  1.2549  0.4458  1.2062
 3990SOL     OW13163   3.053   7.959   4.565 -0.6111  0.5015 -0.9973
 3990SOL    HW113164   2.964   7.924   4.554 -1.2584  0.3854  2.9654
 3990SOL    HW213165   3.102   7.885   4.602  0.1326  1.5113  0.1038
 3991SOL     OW13166   5.480   7.089   3.065  0.8029  0.3373  0.2198
 3991SOL    HW113167   5.502   7.060   3.153 -2.2560  1.7226  1.6023
 3991SOL    HW213168   5.527   7.172   3.055  0.1720  0.8257  1.1306
 3992SOL     OW13169   4.889   8.318   2.746 -0.0667 -0.5436 -0.0052
 3992SOL    HW113170   4.943   8.304   2.668  1.2694 -2.4000  1.1768
 3992SOL    HW213171   4.942   8.374   2.803 -0.7365  0.2209 -0.1166
 3993SOL     OW13172   6.405   3.061   6.250  0.3190  0.5318 -0.2253
 3993SOL    HW113173   6.422   3.096   6.337  0.1086  1.7200 -0.6498
 3993SOL    HW213174   6.470   3.102   6.193  0.5342 -0.3217 -0.6230
 3994SOL     OW13175   5.812   7.033   5.964  0.5191  0.2145 -0.4742
 3994SOL    HW113176   5.806   6.968   5.894  1.0597  0.0020 -0.3277
 3994SOL    HW213177   5.814   7.117   5.918 -1.4813  0.2420 -0.6289
 3995SOL     OW13178   1.585   8.189   4.180  0.3061 -0.1547  0.0928
 3995SOL    HW113179   1.624   8.271   4.151  0.5315 -0.1041  0.5441
 3995SOL    HW213180   1.513   8.216   4.237  0.1829 -0.2701 -0.0060
 3996SOL     OW13181   1.752   8.046   1.990  0.1840  0.2615  0.8009
 3996SOL    HW113182   1.802   7.965   2.000  1.4233  0.7959 -0.6164
 3996SOL    HW213183   1.695   8.049   2.067  1.5015 -0.9691  1.8876
 3997SOL     OW13184   3.767   5.213   3.190 -0.7545 -0.4442 -0.3360
 3997SOL    HW113185   3.789   5.241   3.279 -0.2228  1.7961 -1.0877
 3997SOL    HW213186   3.844   5.236   3.138 -1.7346  0.0027 -1.6529
 3998SOL     OW13187   6.625   7.921   2.948 -0.5313 -0.4659  0.6565
 3998SOL    HW113188   6.564   7.861   2.989  1.0586 -2.7153 -0.0693
 3998SOL    HW213189   6.651   7.981   3.018 -1.2447 -1.3842  1.7330
 3999SOL     OW13190   5.380   7.262   6.331 -0.1180  0.0718  0.6388
 3999SOL    HW113191   5.322   7.187   6.321 -0.0857  0.2298 -1.1887
 3999SOL    HW213192   5.467   7.224   6.340 -0.1419 -0.1270  0.0734
 4000SOL     OW13193   6.211   3.039   3.427 -0.1051 -0.6604 -0.0208
 4000SOL    HW113194   6.120   3.025   3.400 -0.1145  0.7815 -0.8493
 4000SOL    HW213195   6.242   3.110   3.370  0.7506  0.6252  1.9556
 4001SOL     OW13196   3.637   7.561   1.458  0.0001  0.0865 -0.3399
 4001SOL    HW113197   3.650   7.602   1.543  1.7727  0.0754 -0.5683
 4001SOL    HW213198   3.543   7.544   1.453 -0.3975  1.7452  0.8415
 4002SOL     OW13199   6.987   5.168   2.502 -0.4569 -0.6469 -0.1202
 4002SOL    HW113200   7.033   5.219   2.435 -0.7898  0.8499  0.7468
 4002SOL    HW213201   7.048   5.165   2.576 -0.8315 -0.6738  0.1905
 4003SOL     OW13202   3.490   2.461   0.625 -0.1647  0.3693 -0.5597
 4003SOL    HW113203   3.447   2.459   0.710  1.0959 -0.0598  0.0836
 4003SOL    HW213204   3.558   2.527   0.633  0.3296 -0.0648 -1.0459
 4004SOL     OW13205   7.386   3.933   8.489 -0.2513 -0.3626 -0.0879
 4004SOL    HW113206   7.473   3.906   8.460 -0.1564 -0.5398  0.3511
 4004SOL    HW213207   7.341   3.958   8.409  0.2996  0.0067 -0.2935
 4005SOL     OW13208   2.657   2.614   1.569 -0.4066  0.1876 -0.2320
 4005SOL    HW113209   2.665   2.704   1.598 -1.7761  0.5272 -0.8289
 4005SOL    HW213210   2.591   2.616   1.500  0.9196 -0.9669 -1.6431
 4006SOL     OW13211   0.036   4.151   1.131 -0.3310  0.2455  0.0510
 4006SOL    HW113212   0.115   4.200   1.108 -0.3576 -0.1346 -0.9043
 4006SOL    HW213213  -0.031   4.186   1.073 -0.5251 -0.4142 -0.1311
 4007SOL     OW13214   1.873   6.305   1.762 -0.4344  0.4545  0.5246
 4007SOL    HW113215   1.779   6.295   1.749 -0.5298  1.7189  0.1791
 4007SOL    HW213216   1.909   6.219   1.738 -1.6388 -0.6374  2.3783
 4008SOL     OW13217   0.809   3.493   8.314 -0.2345  0.1644 -0.3208
 4008SOL    HW113218   0.904   3.501   8.304 -0.2664  0.6843 -0.2529
 4008SOL    HW213219   0.786   3.413   8.266  0.2617 -0.0689 -0.1693
 4009SOL     OW13220   1.127   3.711   7.746 -0.1750  0.5842 -0.5435
 4009SOL    HW113221   1.207   3.698   7.797 -0.8103  0.9551  0.5975
 4009SOL    HW213222   1.078   3.777   7.796 -0.7518  1.0977 -1.7416
 4010SOL     OW13223   1.264   5.853   7.816 -0.1464 -0.5887 -0.3590
 4010SOL    HW113224   1.273   5.835   7.722  0.3911 -0.2648 -0.3701
 4010SOL    HW213225   1.339   5.811   7.856  1.2831  1.7530 -0.4126
 4011SOL     OW13226   3.705   0.696   7.622 -0.4782  0.2429 -0.1421
 4011SOL    HW113227   3.653   0.629   7.577 -1.8051  0.7504  0.5846
 4011SOL    HW213228   3.791   0.656   7.632 -1.0997 -1.1785 -0.1793
 4012SOL     OW13229   7.674   1.031   7.749 -0.4370 -0.1504 -0.2997
 4012SOL    HW113230   7.676   1.107   7.692 -0.5748 -1.6026 -2.3738
 4012SOL    HW213231   7.765   1.021   7.779 -0.1140  0.0446 -1.1690
 4013SOL     OW13232   0.143   4.533   5.855 -0.4157  0.1795  0.2271
 4013SOL    HW113233   0.212   4.556   5.917 -1.8699  0.6555  1.7146
 4013SOL    HW213234   0.160   4.589   5.779  1.9153 -1.0507 -0.2356
 4014SOL     OW13235   5.390   1.049   0.361 -0.3538 -0.1074  0.0123
 4014SOL    HW113236   5.321   0.983   0.366  1.2247 -1.8496  0.0403
 4014SOL    HW213237   5.383   1.085   0.273 -0.8274 -0.7896 -0.2352
 4015SOL     OW13238   2.294   1.854   2.677 -0.6933 -0.5117  0.4766
 4015SOL    HW113239   2.370   1.911   2.687 -0.0339 -1.2567 -0.2309
 4015SOL    HW213240   2.225   1.912   2.643 -0.3683  0.0961  0.8314
 4016SOL     OW13241   6.516   8.047   6.290  0.2079 -0.1364 -0.5176
 4016SOL    HW113242   6.568   8.113   6.335  0.0362 -0.5897  0.3692
 4016SOL    HW213243   6.580   7.993   6.243  0.4771 -0.2141 -0.0702
 4017SOL     OW13244   6.576   0.013   2.451  0.0202 -0.0089  0.7911
 4017SOL    HW113245   6.514   0.057   2.509 -2.3734 -2.3267  0.1846
 4017SOL    HW213246   6.600   0.079   2.387 -0.5275  1.4030  1.9866
 4018SOL     OW13247   0.133   4.257   6.960 -0.1931 -0.3522 -0.1491
 4018SOL    HW113248   0.057   4.228   6.909  0.8211 -0.6835 -1.5355
 4018SOL    HW213249   0.114   4.228   7.049 -1.4235 -0.9758 -0.5875
 4019SOL     OW13250   1.379   7.812   1.601  0.0856  0.2461  0.1836
 4019SOL    HW113251   1.306   7.847   1.551 -1.0173 -1.8411  0.2328
 4019SOL    HW213252   1.433   7.888   1.622 -0.7371  1.5038 -1.9912
 4020SOL     OW13253   6.811   5.387   2.249 -0.2305 -0.7028 -0.2256
 4020SOL    HW113254   6.906   5.382   2.250 -0.1843 -1.2031 -2.6157
 4020SOL    HW213255   6.787   5.404   2.340  2.2006  0.9725  0.1826
 4021SOL     OW13256   3.844   7.924   1.689  0.4488  0.2632 -0.0512
 4021SOL    HW113257   3.936   7.944   1.710  0.3774  0.4688  0.0721
 4021SOL    HW213258   3.819   7.991   1.625  0.4237  0.1276 -0.1827
 4022SOL     OW13259   0.807   3.056   3.217  0.1569  0.3690  0.1340
 4022SOL    HW113260   0.890   3.103   3.211  0.4788 -0.3579 -2.1040
 4022SOL    HW213261   0.831   2.964   3.208 -1.0033  0.2695 -3.3415
 4023SOL     OW13262   7.066   2.651   5.518 -0.1685  0.7590  0.1240
 4023SOL    HW113263   6.993   2.703   5.549 -1.3837 -0.5285 -0.4643
 4023SOL    HW213264   7.108   2.618   5.597 -0.4670  1.1727  0.4538
 4024SOL     OW13265   1.211   0.435   8.383 -0.5992  0.7861  0.2916
 4024SOL    HW113266   1.254   0.491   8.448  0.1171  0.8835 -0.2556
 4024SOL    HW213267   1.142   0.490   8.346 -0.5505  0.9697  0.4716
 4025SOL     OW13268   1.761   6.199   3.056 -0.4923 -0.7377  0.4148
 4025SOL    HW113269   1.756   6.254   2.978 -0.7487  0.1353  1.0385
 4025SOL    HW213270   1.852   6.169   3.059 -0.7074 -1.5770 -0.7411
 4026SOL     OW13271   4.628   0.431   1.197  0.3695 -0.1274 -0.1966
 4026SOL    HW113272   4.651   0.509   1.147 -0.6820  0.5788  0.3646
 4026SOL    HW213273   4.539   0.410   1.170  0.6208 -1.1160 -0.2995
 4027SOL     OW13274   5.927   1.414   2.175  0.3233  0.4125 -0.3717
 4027SOL    HW113275   5.863   1.469   2.131 -0.0890 -0.2577 -0.6244
 4027SOL    HW213276   6.003   1.415   2.117  0.6820  1.4730  0.0881
 4028SOL     OW13277   2.162   2.791   7.038  0.4574 -0.5999  0.0773
 4028SOL    HW113278   2.142   2.751   7.123 -3.3003  0.9866  0.1279
 4028SOL    HW213279   2.094   2.758   6.979  0.1183  1.9091 -1.0700
 4029SOL     OW13280   5.160   2.042   0.414 -0.6785 -0.0149 -0.5729
 4029SOL    HW113281   5.070   2.021   0.436 -1.0254  2.1969  0.3816
 4029SOL    HW213282   5.185   1.977   0.348 -2.0116 -2.3696  1.1201
 4030SOL     OW13283   6.054   1.633   6.652  0.2088  0.5078 -0.1646
 4030SOL    HW113284   6.113   1.690   6.604  1.5465  0.8274  1.7570
 4030SOL    HW213285   5.967   1.659   6.624  0.8253  2.7945 -0.1135
 4031SOL     OW13286   2.917   8.216   6.571  0.0735  0.0105 -0.2347
 4031SOL    HW113287   2.964   8.207   6.654 -1.3586 -0.5183  0.5386
 4031SOL    HW213288   2.826   8.229   6.595 -0.5708 -1.3581 -1.7271
 4032SOL     OW13289   4.608   8.303   7.620 -0.0825  0.1418 -0.3560
 4032SOL    HW113290   4.628   8.216   7.584 -0.5532  0.3346 -1.1274
 4032SOL    HW213291   4.583   8.287   7.711  0.8403 -0.4065 -0.1895
 4033SOL     OW13292   4.340   7.674   3.293  0.3238  0.1325 -0.5139
 4033SOL    HW113293   4.266   7.688   3.233 -1.3071 -1.2130  1.0598
 4033SOL    HW213294   4.379   7.592   3.263  1.0705  0.7226 -1.1999
 4034SOL     OW13295   5.404   6.283   3.178  0.0451 -0.2801  0.9848
 4034SOL    HW113296   5.344   6.212   3.158  0.5762 -1.1392  2.3098
 4034SOL    HW213297   5.484   6.260   3.131  0.0842 -0.3496  1.0849
 4035SOL     OW13298   1.302   5.542   8.430 -0.0157 -0.1869  0.6239
 4035SOL    HW113299   1.383   5.592   8.421 -0.4245  0.4588  0.4728
 4035SOL    HW213300   1.244   5.598   8.482 -1.1231  0.3070 -1.0538
 4036SOL     OW13301   3.806   4.885   5.654 -0.0983 -0.0012 -0.5803
 4036SOL    HW113302   3.718   4.850   5.639 -0.7073  1.6066 -0.9802
 4036SOL    HW213303   3.806   4.970   5.610  0.0874  2.2100  3.2488
 4037SOL     OW13304   7.231   1.150   4.180  0.7034 -0.4283 -0.0195
 4037SOL    HW113305   7.183   1.209   4.123  1.7064  0.6960  0.2703
 4037SOL    HW213306   7.212   1.180   4.268  2.6669  0.6828  0.0834
 4038SOL     OW13307   1.943   7.004   7.877 -0.3386  0.9818 -0.1652
 4038SOL    HW113308   1.978   7.069   7.939 -1.8999  1.8514 -0.1280
 4038SOL    HW213309   2.020   6.964   7.837  0.6793  2.1784  0.5361
 4039SOL     OW13310   1.002   4.476   2.122  0.1120  0.1558 -0.6298
 4039SOL    HW113311   1.078   4.483   2.064  0.0196 -0.5102 -0.8367
 4039SOL    HW213312   0.972   4.385   2.112 -0.9798  0.5337 -0.8807
 4040SOL     OW13313   7.814   7.801   5.848  0.4432  0.2002  0.0532
 4040SOL    HW113314   7.827   7.788   5.942 -0.8130 -0.2122  0.1954
 4040SOL    HW213315   7.752   7.875   5.843  0.7609  0.4325 -0.4622
 4041SOL     OW13316   0.117   1.510   7.428 -0.2293  0.1668  0.3589
 4041SOL    HW113317   0.193   1.565   7.450 -0.7153  0.3628  1.6725
 4041SOL    HW213318   0.114   1.446   7.499 -0.5359 -0.6496 -0.3854
 4042SOL     OW13319   4.412   4.032   3.813 -0.1159 -0.0966 -0.3638
 4042SOL    HW113320   4.367   4.086   3.747  0.8801 -0.6740 -1.5693
 4042SOL    HW213321   4.505   4.052   3.801  0.2071 -1.4324 -0.2573
 4043SOL     OW13322   0.743   1.023   7.716  0.5896 -0.0058  0.2561
 4043SOL    HW113323   0.678   1.002   7.783  0.1827 -1.9851 -0.6765
 4043SOL    HW213324   0.698   1.080   7.655  1.3735  3.0171  2.2797
 4044SOL     OW13325   7.633   2.868   0.020  0.4488 -0.1270 -0.0999
 4044SOL    HW113326   7.566   2.934   0.039 -1.3083 -1.8173 -0.0553
 4044SOL    HW213327   7.681   2.903  -0.055 -0.6912  1.0366 -0.3226
 4045SOL     OW13328   6.619   4.850   5.630  0.1857  0.4203  0.2958
 4045SOL    HW113329   6.573   4.774   5.594 -2.3691  2.9140 -2.2213
 4045SOL    HW213330   6.597   4.850   5.723 -1.0635 -1.0486  0.0331
 4046SOL     OW13331   1.474   0.591   5.090  0.3186  0.1954  0.3755
 4046SOL    HW113332   1.568   0.573   5.082  0.7103  1.8720  0.8088
 4046SOL    HW213333   1.466   0.686   5.076 -1.3096  0.0944  0.3919
 4047SOL     OW13334   0.625   4.907   7.840  0.0457  0.6785 -0.5335
 4047SOL    HW113335   0.547   4.861   7.871 -0.5793  0.7509 -1.9297
 4047SOL    HW213336   0.630   4.986   7.895  1.4014 -1.1318  2.2347
 4048SOL     OW13337   0.622   6.146   8.339 -0.8124  0.2953  0.3530
 4048SOL    HW113338   0.532   6.170   8.315 -1.0178  1.3356  2.0368
 4048SOL    HW213339   0.612   6.079   8.406 -0.2490 -1.6481 -1.3897
 4049SOL     OW13340   2.705   8.377   6.740 -0.0650  0.2648  0.4411
 4049SOL    HW113341   2.740   8.458   6.778 -1.2874  0.9717  0.1041
 4049SOL    HW213342   2.612   8.377   6.764 -0.4243 -0.2622 -0.8652
 4050SOL     OW13343   2.301   3.183   5.620  0.9676 -0.2407  0.1936
 4050SOL    HW113344   2.228   3.133   5.657  0.5074  0.1436 -0.1789
 4050SOL    HW213345   2.261   3.265   5.591  1.7273  0.3930  0.8844
 4051SOL     OW13346   2.218   6.518   6.327 -0.2654  0.2086 -0.4627
 4051SOL    HW113347   2.151   6.516   6.259 -0.7707  1.5380 -0.0322
 4051SOL    HW213348   2.282   6.583   6.297 -0.3037  0.5370  0.1493
 4052SOL     OW13349   3.686   3.429   2.768  0.1491  0.4534  0.4604
 4052SOL    HW113350   3.683   3.339   2.799  0.0651  1.0520  2.3019
 4052SOL    HW213351   3.767   3.434   2.716  0.8803 -0.3440  1.4858
 4053SOL     OW13352   2.858   2.890   3.342 -0.3248 -0.6562 -0.4400
 4053SOL    HW113353   2.838   2.891   3.435  1.3137  0.2823 -0.0672
 4053SOL    HW213354   2.943   2.847   3.336  0.5214  1.0507 -1.2683
 4054SOL     OW13355   3.871   8.213   4.079 -0.3772 -0.2854  0.6559
 4054SOL    HW113356   3.795   8.156   4.091  0.9787 -2.6650 -1.3641
 4054SOL    HW213357   3.916   8.211   4.164 -1.3135 -0.7027  1.1673
 4055SOL     OW13358   8.173   5.685   2.717  0.2496 -0.2177 -0.2612
 4055SOL    HW113359   8.205   5.723   2.635 -1.7285  1.0605 -0.5156
 4055SOL    HW213360   8.078   5.701   2.716  0.0787 -0.6697  2.0097
 4056SOL     OW13361   8.100   4.193   6.952 -0.2323 -0.1248 -0.4955
 4056SOL    HW113362   8.148   4.263   6.909  0.3730 -0.4338 -0.3410
 4056SOL    HW213363   8.015   4.231   6.974 -0.0969  0.3974 -0.8691
 4057SOL     OW13364   4.494   3.552   1.412 -0.1920  0.3941 -0.2867
 4057SOL    HW113365   4.530   3.471   1.377 -0.6587 -0.4955  1.2248
 4057SOL    HW213366   4.468   3.602   1.335  2.5848  0.3398 -1.3949
 4058SOL     OW13367   8.236   2.394   4.977 -0.0450  0.3081  0.2458
 4058SOL    HW113368   8.241   2.386   4.882 -0.0795 -0.7824  0.3200
 4058SOL    HW213369   8.319   2.357   5.009  0.0095  0.7545  0.6439
 4059SOL     OW13370   1.935   4.296   1.503  0.3893 -0.3237 -0.1309
 4059SOL    HW113371   2.024   4.277   1.532  0.5680  0.3386 -0.2197
 4059SOL    HW213372   1.943   4.378   1.453 -0.5093  0.6662  1.2664
 4060SOL     OW13373   8.194   5.645   1.478 -0.3621  0.1731 -0.1494
 4060SOL    HW113374   8.117   5.600   1.512 -1.1717 -0.3036 -2.4162
 4060SOL    HW213375   8.247   5.576   1.438  0.4132  0.7101 -0.0713
 4061SOL     OW13376   1.292   0.589   1.012  0.2972 -0.0287  1.0354
 4061SOL    HW113377   1.297   0.680   0.984  2.1694  0.0334  1.4290
 4061SOL    HW213378   1.227   0.549   0.954  0.5546  1.2055 -0.1386
 4062SOL     OW13379   5.193   2.873   1.392 -0.0991  0.3064 -0.3020
 4062SOL    HW113380   5.192   2.836   1.304 -0.7816  1.3665 -0.7512
 4062SOL    HW213381   5.266   2.935   1.392 -1.0859  1.5022 -0.6463
 4063SOL     OW13382   0.703   0.433   6.742 -0.0250 -0.3026 -0.1378
 4063SOL    HW113383   0.703   0.501   6.809 -1.0679  1.3850 -1.7513
 4063SOL    HW213384   0.795   0.408   6.733  0.4185  1.0801  0.3449
 4064SOL     OW13385   4.665   7.178   3.201 -0.2585  0.2951  0.3648
 4064SOL    HW113386   4.589   7.198   3.256  0.3442 -1.2473  1.8342
 4064SOL    HW213387   4.728   7.247   3.220 -1.2661  1.6753 -0.9730
 4065SOL     OW13388   5.984   3.935   0.779 -0.0267  0.1744  0.2843
 4065SOL    HW113389   6.005   4.001   0.714  1.0237 -0.7884 -0.3815
 4065SOL    HW213390   6.068   3.912   0.819 -0.4353 -0.4539  0.8103
 4066SOL     OW13391   0.888   6.127   8.221 -0.2443 -0.2473  0.5069
 4066SOL    HW113392   0.808   6.141   8.271 -1.2294  0.9542 -1.2637
 4066SOL    HW213393   0.863   6.066   8.152  0.9653 -1.5557  1.1842
 4067SOL     OW13394   3.362   4.169   5.897  0.5221 -0.4988 -0.0256
 4067SOL    HW113395   3.375   4.245   5.840  2.3888 -2.3584 -2.3113
 4067SOL    HW213396   3.435   4.172   5.959  1.3780 -1.0868 -0.9780
 4068SOL     OW13397   4.877   3.358   2.691  0.2968 -0.5262  0.2489
 4068SOL    HW113398   4.820   3.421   2.736  0.1091  0.2224 -0.9739
 4068SOL    HW213399   4.849   3.273   2.724 -0.7089 -0.0956  0.5745
 4069SOL     OW13400   0.604   5.020   6.886  0.0846  0.2111  0.3065
 4069SOL    HW113401   0.563   5.019   6.799  0.7487 -0.5359 -0.0095
 4069SOL    HW213402   0.675   4.956   6.880 -1.2703 -1.5841  2.0837
 4070SOL     OW13403   2.372   3.970   3.132  0.6802  0.1272  0.3638
 4070SOL    HW113404   2.406   3.908   3.196  2.1780  1.7194  1.1902
 4070SOL    HW213405   2.277   3.959   3.135  0.8892 -1.8878  0.6831
 4071SOL     OW13406   7.424   1.219   2.609 -0.4959  0.1057  0.3765
 4071SOL    HW113407   7.407   1.147   2.548  0.1343 -0.8347  1.2659
 4071SOL    HW213408   7.387   1.296   2.567 -2.9955 -1.0627  0.2695
 4072SOL     OW13409   1.410   0.292   0.411  0.1091 -0.5058  0.2624
 4072SOL    HW113410   1.454   0.359   0.358 -0.1999 -0.9455 -0.5759
 4072SOL    HW213411   1.480   0.257   0.466  0.9550 -1.4623 -1.3247
 4073SOL     OW13412   4.578   7.935   0.676 -0.1335 -0.3237  0.3184
 4073SOL    HW113413   4.565   7.844   0.649 -1.1287 -0.0124 -0.2985
 4073SOL    HW213414   4.542   7.987   0.605  2.8213  0.6552 -0.6421
 4074SOL     OW13415   3.675   8.020   5.248  0.7800 -0.0340  0.4593
 4074SOL    HW113416   3.707   7.993   5.335  1.6457 -3.0874 -0.6881
 4074SOL    HW213417   3.755   8.030   5.196  0.2734  1.8950 -0.0305
 4075SOL     OW13418   6.680   4.405   0.443 -0.1173  0.3740  0.3027
 4075SOL    HW113419   6.721   4.450   0.517 -0.5424  0.9244  0.2174
 4075SOL    HW213420   6.609   4.464   0.416 -0.6949 -0.3565  0.1863
 4076SOL     OW13421   3.129   7.279   3.153  0.3005  0.0675  0.3576
 4076SOL    HW113422   3.065   7.350   3.157  0.7465  0.5372 -0.5221
 4076SOL    HW213423   3.214   7.323   3.154  0.5946 -0.2587 -2.4131
 4077SOL     OW13424   4.714   7.659   7.333 -0.2210  0.0983  0.0683
 4077SOL    HW113425   4.781   7.660   7.264 -1.4522 -0.0252 -1.1754
 4077SOL    HW213426   4.682   7.568   7.334  0.2395 -0.0669  1.2856
 4078SOL     OW13427   2.183   7.351   2.058  0.2046 -0.4966  0.6418
 4078SOL    HW113428   2.239   7.418   2.018 -0.9982  0.4755  0.5441
 4078SOL    HW213429   2.215   7.269   2.021  1.5017  0.0385  0.5131
 4079SOL     OW13430   7.622   0.417   7.545  0.4522 -0.0990  0.3451
 4079SOL    HW113431   7.658   0.442   7.460 -2.2226  0.2292 -0.8033
 4079SOL    HW213432   7.657   0.481   7.607  1.4554  0.4195 -0.7419
 4080SOL     OW13433   7.076   8.058   8.004 -0.4838  0.3080 -0.0424
 4080SOL    HW113434   7.159   8.106   7.994  0.3456 -0.5569  1.9942
 4080SOL    HW213435   7.081   7.988   7.938 -0.3515  1.2182 -1.0241
 4081SOL     OW13436   3.701   1.532   5.845  0.4129  0.5104  0.1422
 4081SOL    HW113437   3.662   1.523   5.932  0.6085 -2.0733  0.0173
 4081SOL    HW213438   3.742   1.619   5.847 -0.9066  1.1662  2.0519
 4082SOL     OW13439   0.849   6.600   1.983  0.8212  0.3097  0.3260
 4082SOL    HW113440   0.926   6.547   1.965  1.3406  0.5166  1.7720
 4082SOL    HW213441   0.799   6.549   2.047 -0.9913 -0.4633 -1.5752
 4083SOL     OW13442   1.107   2.449   1.723 -0.3561 -0.0570 -0.1798
 4083SOL    HW113443   1.100   2.410   1.636  0.2276 -0.4547 -0.0510
 4083SOL    HW213444   1.188   2.499   1.721 -0.9531  0.9362 -0.2461
 4084SOL     OW13445   1.852   2.549   2.845  0.1518  0.1307  0.0898
 4084SOL    HW113446   1.834   2.485   2.914  1.9255 -0.4287  0.0767
 4084SOL    HW213447   1.845   2.634   2.889 -1.4242 -0.0745  0.2907
 4085SOL     OW13448   5.356   8.086   0.360  0.6808 -0.2326  0.8812
 4085SOL    HW113449   5.277   8.091   0.306  0.8527 -1.3479  0.4983
 4085SOL    HW213450   5.343   8.153   0.427 -0.2362  0.1295  0.3699
 4086SOL     OW13451   5.486   5.104   4.589 -0.2990 -0.4242  0.7644
 4086SOL    HW113452   5.566   5.106   4.537 -0.8398  0.5238 -0.0709
 4086SOL    HW213453   5.455   5.195   4.590 -2.7344 -1.0921 -1.1727
 4087SOL     OW13454   6.765   2.237   3.832 -0.3807  0.1567  0.2136
 4087SOL    HW113455   6.843   2.182   3.828 -0.7240 -0.2958 -0.4194
 4087SOL    HW213456   6.702   2.194   3.775 -1.2126  0.3382  0.9751
 4088SOL     OW13457   0.600   3.970   5.657  0.3251 -0.1441  0.0229
 4088SOL    HW113458   0.519   4.006   5.692  0.0284  1.0075 -1.7098
 4088SOL    HW213459   0.613   3.888   5.705 -0.5709  0.8084  2.0038
 4089SOL     OW13460   1.083   1.055   0.994 -0.3140 -0.4595 -0.2354
 4089SOL    HW113461   1.144   1.077   0.924  0.2306 -1.5585 -0.1214
 4089SOL    HW213462   0.996   1.071   0.956 -0.0110 -0.5535 -0.9817
 4090SOL     OW13463   6.044   1.038   5.055 -0.4735 -0.2110  0.9280
 4090SOL    HW113464   6.139   1.034   5.045 -0.4566 -0.9723  1.3256
 4090SOL    HW213465   6.012   1.068   4.970 -0.0746 -2.7398 -0.2178
 4091SOL     OW13466   6.225   4.200   5.085 -0.2820  0.2602  0.0316
 4091SOL    HW113467   6.241   4.137   5.014  0.8134 -0.1234  0.5911
 4091SOL    HW213468   6.177   4.150   5.151  1.7862 -0.4763  1.0920
 4092SOL     OW13469   6.289   8.248   3.823  0.0868  0.0762 -0.5644
 4092SOL    HW113470   6.266   8.294   3.742  0.2627 -0.3467 -0.8621
 4092SOL    HW213471   6.384   8.245   3.822  0.0700 -0.5878 -0.7230
 4093SOL     OW13472   5.053   2.083   5.220  0.5333 -0.1851  0.6902
 4093SOL    HW113473   5.000   2.041   5.152  0.8933  1.0194 -0.3788
 4093SOL    HW213474   5.143   2.077   5.189  0.7530  0.0203  1.2637
 4094SOL     OW13475   8.372   0.114   5.745  0.1162  0.3570  0.1047
 4094SOL    HW113476   8.440   0.165   5.702  1.0927 -0.2398  0.9031
 4094SOL    HW213477   8.338   0.057   5.677 -1.3747  2.3556 -0.9604
 4095SOL     OW13478   1.482   3.836   6.493  0.2783  0.1504  0.1899
 4095SOL    HW113479   1.404   3.859   6.543 -0.2676 -3.0516  1.0206
 4095SOL    HW213480   1.450   3.816   6.406  0.2406 -0.4747  0.3401
 4096SOL     OW13481   5.201   6.989   5.259 -0.4078 -0.2509  0.6679
 4096SOL    HW113482   5.294   6.993   5.283 -0.8449 -0.5782  2.5530
 4096SOL    HW213483   5.186   6.898   5.236 -0.5979 -0.5472  1.9143
 4097SOL     OW13484   4.483   1.485   4.409  0.6334 -0.0637  0.0325
 4097SOL    HW113485   4.548   1.421   4.437 -0.0642 -2.3531 -2.9839
 4097SOL    HW213486   4.519   1.570   4.434  2.7292 -1.4641  2.1379
 4098SOL     OW13487   1.704   4.944   6.802  0.2989 -0.5778 -0.3031
 4098SOL    HW113488   1.770   4.985   6.858 -1.1346 -0.8639  1.6949
 4098SOL    HW213489   1.638   5.012   6.791  0.3570 -0.6727 -1.3372
 4099SOL     OW13490   7.607   2.331   6.026 -0.2238  0.3729  0.1074
 4099SOL    HW113491   7.684   2.383   6.051  1.1581 -1.0527 -0.9779
 4099SOL    HW213492   7.559   2.389   5.966 -0.5823  1.6703  1.5882
 4100SOL     OW13493   7.292   6.720   5.731 -0.3536 -0.3583  0.0028
 4100SOL    HW113494   7.212   6.739   5.778  0.2367  1.4477  0.3463
 4100SOL    HW213495   7.316   6.631   5.758 -0.5786  0.2323  2.3191
 4101SOL     OW13496   5.782   3.282   6.673  0.0683 -0.0278  0.0249
 4101SOL    HW113497   5.763   3.286   6.579 -2.0975  0.5445  0.4433
 4101SOL    HW213498   5.810   3.192   6.688  0.4127 -0.1372 -1.1507
 4102SOL     OW13499   7.549   1.967   8.000  0.3808 -0.0440 -0.0610
 4102SOL    HW113500   7.528   1.878   8.029 -0.2669 -0.3353 -1.3336
 4102SOL    HW213501   7.644   1.968   7.992  0.2952 -1.2571 -1.8312
 4103SOL     OW13502   4.801   0.630   5.316  0.3309 -0.4439  0.0478
 4103SOL    HW113503   4.830   0.633   5.408 -1.1273 -1.1881  0.5542
 4103SOL    HW213504   4.727   0.690   5.313  0.4558 -0.3232 -0.6936
 4104SOL     OW13505   3.232   6.939   2.766 -0.5743 -0.1625 -0.4738
 4104SOL    HW113506   3.222   7.006   2.698 -2.0215 -0.3741 -0.5175
 4104SOL    HW213507   3.309   6.965   2.815 -1.1841  1.6452 -0.3940
 4105SOL     OW13508   1.953   4.924   1.771  0.1234  0.0352  0.1745
 4105SOL    HW113509   1.980   4.970   1.692 -1.0216  1.3516  0.5222
 4105SOL    HW213510   1.898   4.987   1.819  0.4664 -0.8594  1.8277
 4106SOL     OW13511   3.903   5.513   5.039 -0.1493  0.0341 -0.6233
 4106SOL    HW113512   3.971   5.578   5.061 -0.0633  0.0107 -0.8199
 4106SOL    HW213513   3.949   5.429   5.040 -0.1443  0.0329 -0.8961
 4107SOL     OW13514   5.097   5.117   7.655  0.0297  0.0795  0.0189
 4107SOL    HW113515   5.093   5.189   7.592 -0.7291 -1.0585 -1.3016
 4107SOL    HW213516   5.191   5.108   7.675  0.2960  0.4090 -1.0224
 4108SOL     OW13517   5.260   0.803   7.167  0.5537 -0.0561 -0.9786
 4108SOL    HW113518   5.207   0.749   7.226  0.9015 -2.8161 -3.0349
 4108SOL    HW213519   5.195   0.852   7.116  0.2212  1.0464  0.4130
 4109SOL     OW13520   3.679   6.539   0.014  0.4900 -0.3634  0.1135
 4109SOL    HW113521   3.757   6.488   0.037  0.8486  0.6143  1.1693
 4109SOL    HW213522   3.648   6.573   0.098 -0.7315 -0.2441 -0.3756
 4110SOL     OW13523   7.594   3.599   5.069 -0.7169  0.2741  0.0011
 4110SOL    HW113524   7.614   3.511   5.037 -0.8123  0.2203  0.0900
 4110SOL    HW213525   7.521   3.587   5.130 -2.2106  0.6937 -1.6203
 4111SOL     OW13526   5.584   2.323   2.977 -0.3833 -0.6280 -0.2927
 4111SOL    HW113527   5.520   2.268   2.934  1.2742 -2.2479 -0.8316
 4111SOL    HW213528   5.591   2.287   3.066 -0.3789 -0.3047 -0.1580
 4112SOL     OW13529   4.075   1.402   4.073  1.0577  0.2499 -0.3637
 4112SOL    HW113530   4.048   1.315   4.102  0.1810  0.6061 -0.0850
 4112SOL    HW213531   4.128   1.436   4.146  1.5698 -0.1192 -0.5580
 4113SOL     OW13532   0.294   1.611   4.786  0.6068  0.2126  0.1267
 4113SOL    HW113533   0.303   1.517   4.769  4.4844  0.4991 -0.1809
 4113SOL    HW213534   0.266   1.648   4.702  0.3357 -0.4862 -0.0998
 4114SOL     OW13535   4.023   4.812   0.491 -0.1945 -0.1840  0.1395
 4114SOL    HW113536   3.966   4.765   0.430 -1.0968  1.0057  0.0058
 4114SOL    HW213537   4.104   4.826   0.442 -0.1734 -0.9661 -0.0619
 4115SOL     OW13538   1.231   5.943   5.714 -0.1772 -0.4041 -0.2521
 4115SOL    HW113539   1.268   6.030   5.705 -1.1708  0.2179  1.3029
 4115SOL    HW213540   1.303   5.883   5.692  0.8033  0.7754 -0.3345
 4116SOL     OW13541   2.177   5.114   3.551  0.0896  0.3701  1.0099
 4116SOL    HW113542   2.187   5.079   3.462 -0.6199 -1.0090  1.4579
 4116SOL    HW213543   2.202   5.042   3.608 -0.2776  0.9804  1.9553
 4117SOL     OW13544   2.668   6.128   3.449 -0.0558 -0.0201  0.0154
 4117SOL    HW113545   2.740   6.067   3.432  2.5705  2.5276  1.0087
 4117SOL    HW213546   2.634   6.150   3.363  0.0006 -1.6427 -0.4512
 4118SOL     OW13547   7.393   3.894   7.973  0.2019 -0.7039  0.2451
 4118SOL    HW113548   7.338   3.867   8.047  0.5780 -1.2363  0.3356
 4118SOL    HW213549   7.431   3.977   8.001  0.3939 -0.9360  0.6804
 4119SOL     OW13550   5.133   2.419   6.723  0.1355  0.1241  0.1012
 4119SOL    HW113551   5.040   2.430   6.707 -0.2657 -3.6988 -1.3199
 4119SOL    HW213552   5.139   2.391   6.814  0.0064  1.0318  0.3965
 4120SOL     OW13553   2.363   6.706   6.232 -0.3211  0.1532 -0.4245
 4120SOL    HW113554   2.449   6.677   6.263  0.6366  2.4826 -0.7365
 4120SOL    HW213555   2.363   6.801   6.245 -3.4402  0.0746  0.9182
 4121SOL     OW13556   1.992   5.921   4.864  0.2083  0.4432 -0.1383
 4121SOL    HW113557   1.984   6.015   4.879 -1.2298  0.2487  0.5616
 4121SOL    HW213558   2.056   5.912   4.794  2.1460  1.7971  1.3867
 4122SOL     OW13559   4.141   2.289   5.990  0.2224 -0.2320 -0.1826
 4122SOL    HW113560   4.165   2.382   5.994  1.4861 -0.4457 -1.8231
 4122SOL    HW213561   4.050   2.290   5.962  0.3105  0.5279 -0.4930
 4123SOL     OW13562   6.216   3.633   4.939  0.2466  0.3811  0.6881
 4123SOL    HW113563   6.210   3.585   5.022  1.7373  0.6281  0.9614
 4123SOL    HW213564   6.139   3.688   4.938 -0.3081 -0.3495  1.4457
 4124SOL     OW13565   7.675   5.671   7.768  0.1061 -0.0248 -0.5700
 4124SOL    HW113566   7.608   5.693   7.703  1.4821 -1.4364 -2.6020
 4124SOL    HW213567   7.626   5.647   7.846 -1.7675 -0.6024 -1.8593
 4125SOL     OW13568   3.099   2.847   5.105 -0.6984  0.5529  0.2472
 4125SOL    HW113569   3.044   2.807   5.172  0.6275 -0.3409  0.8335
 4125SOL    HW213570   3.187   2.850   5.143 -0.0446  0.6396 -1.1910
 4126SOL     OW13571   2.280   0.110   5.639 -0.4199  0.1334  0.1806
 4126SOL    HW113572   2.298   0.022   5.672 -0.3446  0.0444 -0.0977
 4126SOL    HW213573   2.289   0.167   5.716  3.0958  0.4002 -0.2239
 4127SOL     OW13574   3.875   0.772   7.970  0.0891  0.1981  0.8148
 4127SOL    HW113575   3.938   0.816   8.026 -0.8633  1.0626  1.2424
 4127SOL    HW213576   3.889   0.811   7.883  1.6328 -1.2162  0.3812
 4128SOL     OW13577   8.544   5.291   4.819  0.1725 -0.3301 -0.1741
 4128SOL    HW113578   8.476   5.295   4.752  2.3279  0.9306 -2.4567
 4128SOL    HW213579   8.536   5.202   4.856 -1.7986 -0.6760 -1.2950
 4129SOL     OW13580   1.141   4.979   7.829  0.4945  0.1572  0.7456
 4129SOL    HW113581   1.178   5.061   7.794  0.2442  0.2941  0.7977
 4129SOL    HW213582   1.098   5.005   7.910 -4.6762  1.1722 -1.9179
 4130SOL     OW13583   0.454   4.609   5.379 -0.3637  0.3545  0.4996
 4130SOL    HW113584   0.494   4.632   5.295 -1.9905  1.2451 -0.0785
 4130SOL    HW213585   0.424   4.519   5.367  0.8714 -0.1199  0.7454
 4131SOL     OW13586   8.042   6.508   2.499 -0.3381  0.1931 -0.5554
 4131SOL    HW113587   8.003   6.451   2.565  2.0955 -1.7038 -0.5867
 4131SOL    HW213588   8.033   6.459   2.417  0.8251  0.2877 -0.7693
 4132SOL     OW13589   0.582   3.651   7.104  0.2804  0.1632 -0.0907
 4132SOL    HW113590   0.674   3.625   7.100  0.3003  0.2359 -0.1035
 4132SOL    HW213591   0.537   3.588   7.046  0.5764  1.2429 -1.5493
 4133SOL     OW13592   7.279   2.135   4.190 -0.6908 -0.0085  1.0187
 4133SOL    HW113593   7.365   2.162   4.223 -0.1516 -0.8352  0.3378
 4133SOL    HW213594   7.277   2.040   4.205 -0.8042 -0.2571 -0.4648
 4134SOL     OW13595   8.224   1.765   3.007  0.6004  0.0599 -0.0735
 4134SOL    HW113596   8.262   1.807   3.085  0.3699 -0.4213  0.3044
 4134SOL    HW213597   8.282   1.791   2.935  2.4440 -1.7153  0.6837
 4135SOL     OW13598   8.396   4.217   0.129  0.8231 -0.3709 -0.5692
 4135SOL    HW113599   8.331   4.151   0.104 -0.7028  1.1504 -0.8263
 4135SOL    HW213600   8.441   4.179   0.204  0.6584 -2.0880 -1.2836
 4136SOL     OW13601   0.999   8.001   0.471 -0.0089 -0.0418 -0.9159
 4136SOL    HW113602   0.993   7.911   0.439  0.1763  0.1327 -1.4445
 4136SOL    HW213603   0.932   8.048   0.422 -0.3005  0.0506 -0.4339
 4137SOL     OW13604   3.104   7.855   7.495 -0.2167 -0.6953 -0.0349
 4137SOL    HW113605   3.050   7.878   7.571  1.1519 -0.8847  1.0218
 4137SOL    HW213606   3.054   7.887   7.420 -0.3347  1.9589  1.0844
 4138SOL     OW13607   0.991   4.280   8.465  0.7968 -0.7924  0.2823
 4138SOL    HW113608   1.048   4.346   8.427 -0.2235 -0.6501 -1.0643
 4138SOL    HW213609   1.014   4.199   8.421 -2.3437 -0.1458 -3.0630
 4139SOL     OW13610   5.483   6.746   3.581  0.6066 -0.1640  0.5019
 4139SOL    HW113611   5.447   6.821   3.533 -0.8978 -0.4069  1.1850
 4139SOL    HW213612   5.410   6.715   3.635  1.8377 -0.7544  1.9032
 4140SOL     OW13613   2.629   6.893   6.179 -0.0206 -0.1264  0.4216
 4140SOL    HW113614   2.578   6.937   6.246 -2.6786 -0.6503 -1.1016
 4140SOL    HW213615   2.585   6.915   6.097  2.2659 -0.6222 -1.0432
 4141SOL     OW13616   3.144   0.832   6.598  0.3795 -0.1932 -0.5415
 4141SOL    HW113617   3.058   0.851   6.562  0.6137 -2.3586 -2.4841
 4141SOL    HW213618   3.127   0.794   6.684 -0.4910  0.9380 -0.2066
 4142SOL     OW13619   6.877   4.525   2.384 -0.1550  0.2565 -0.0755
 4142SOL    HW113620   6.872   4.579   2.305  0.0268  0.1746 -0.1440
 4142SOL    HW213621   6.820   4.569   2.447 -1.8048 -0.6914 -0.8521
 4143SOL     OW13622   2.517   3.866   7.916  0.1699  0.4623  0.1362
 4143SOL    HW113623   2.525   3.807   7.990  1.5414 -0.0807 -0.4007
 4143SOL    HW213624   2.429   3.903   7.923 -0.6388 -1.4455  0.6291
 4144SOL     OW13625   3.194   1.687   1.415  0.1956  0.4319 -0.3416
 4144SOL    HW113626   3.152   1.705   1.331  0.2076 -0.2930 -0.5120
 4144SOL    HW213627   3.242   1.767   1.437 -0.3694  0.8645 -0.6886
 4145SOL     OW13628   7.017   6.626   3.573  0.1044 -0.2475 -0.5554
 4145SOL    HW113629   7.068   6.706   3.587 -0.3569  0.1199 -0.9497
 4145SOL    HW213630   6.990   6.631   3.481 -1.8142  0.2421  0.0088
 4146SOL     OW13631   8.207   7.239   4.025  0.1968  0.6350  0.1118
 4146SOL    HW113632   8.182   7.322   3.985 -0.8999 -0.2651 -1.1757
 4146SOL    HW213633   8.224   7.181   3.950 -0.0368 -0.5612  0.9600
 4147SOL     OW13634   7.821   7.340   6.203 -0.2311 -0.0026  0.1649
 4147SOL    HW113635   7.754   7.282   6.239 -1.8193  1.2935 -0.5623
 4147SOL    HW213636   7.810   7.423   6.251 -1.4699  1.3128 -2.2253
 4148SOL     OW13637   5.396   7.157   0.840  0.2510  0.5187 -0.3349
 4148SOL    HW113638   5.442   7.206   0.773  1.7035 -2.1273 -1.4138
 4148SOL    HW213639   5.463   7.104   0.883 -1.1497 -0.3331  0.9474
 4149SOL     OW13640   0.107   2.557   4.817  0.2859 -0.0134  0.2382
 4149SOL    HW113641   0.127   2.641   4.859  1.3138 -0.2901  0.3277
 4149SOL    HW213642   0.121   2.492   4.886  0.3537 -0.3331 -0.0729
 4150SOL     OW13643   1.947   4.922   5.871 -0.2716 -0.1809  0.3281
 4150SOL    HW113644   1.897   4.959   5.798 -0.3866 -1.0451 -0.0416
 4150SOL    HW213645   2.014   4.988   5.890 -0.0967 -0.0382 -0.7169
 4151SOL     OW13646   2.697   4.092   3.158  0.0878 -0.2106 -0.6334
 4151SOL    HW113647   2.786   4.125   3.167 -0.3174  0.7214  0.1358
 4151SOL    HW213648   2.701   4.031   3.084  2.4132 -3.8466  2.1181
 4152SOL     OW13649   3.147   6.546   0.810 -0.3098  0.0619 -0.1678
 4152SOL    HW113650   3.052   6.536   0.802 -0.2320  0.2791 -1.6707
 4152SOL    HW213651   3.174   6.473   0.865 -0.8941 -2.6161 -3.1108
 4153SOL     OW13652   3.853   1.457   1.637 -0.1850 -0.7046  0.4960
 4153SOL    HW113653   3.800   1.414   1.570 -0.5181  0.6153 -0.1198
 4153SOL    HW213654   3.861   1.547   1.606 -1.1037  0.1810  2.6858
 4154SOL     OW13655   7.455   1.760   2.920  0.2396  0.1989 -0.6452
 4154SOL    HW113656   7.430   1.853   2.919  1.0221  0.5145  1.5710
 4154SOL    HW213657   7.372   1.713   2.914 -0.5282  1.1328  1.4363
 4155SOL     OW13658   1.399   0.101   7.278  0.4887 -0.0728  0.2222
 4155SOL    HW113659   1.377   0.089   7.186  0.8958  1.1324 -0.0447
 4155SOL    HW213660   1.438   0.018   7.304 -0.4666 -0.7502 -0.4347
 4156SOL     OW13661   2.471   1.925   4.905 -0.2964 -0.3108 -0.2719
 4156SOL    HW113662   2.492   1.992   4.971 -1.8430 -1.7673  1.8364
 4156SOL    HW213663   2.465   1.844   4.955 -0.3171 -1.7285 -2.4656
 4157SOL     OW13664   2.491   1.402   1.645 -0.3454 -0.3078  0.7198
 4157SOL    HW113665   2.565   1.379   1.702 -0.5918 -0.3259  1.0376
 4157SOL    HW213666   2.498   1.497   1.635 -0.0326 -0.3608  0.3975
 4158SOL     OW13667   6.113   4.337   6.555 -0.5351  0.3177 -0.3195
 4158SOL    HW113668   6.054   4.413   6.559 -0.6109  0.2211  2.9504
 4158SOL    HW213669   6.085   4.281   6.626  2.1440 -0.7917 -0.0218
 4159SOL     OW13670   0.584   7.382   4.883 -0.2896  0.1356 -0.2593
 4159SOL    HW113671   0.562   7.326   4.957 -0.0137  1.4040  0.8321
 4159SOL    HW213672   0.608   7.322   4.813  1.5649 -1.1274  1.3511
 4160SOL     OW13673   8.380   0.391   5.424 -0.2808 -0.5186 -0.2178
 4160SOL    HW113674   8.295   0.420   5.456 -1.1197 -1.5622 -1.3890
 4160SOL    HW213675   8.418   0.342   5.497 -0.3595  0.5528  0.5562
 4161SOL     OW13676   5.340   3.782   2.963  0.4562  0.7055 -0.0914
 4161SOL    HW113677   5.324   3.823   2.878 -0.6474  1.1348  0.2997
 4161SOL    HW213678   5.392   3.705   2.943 -0.6041  0.2611 -1.2883
 4162SOL     OW13679   8.489   3.234   2.790 -0.1114 -0.5731 -0.0520
 4162SOL    HW113680   8.468   3.307   2.732  1.1506 -0.2016 -0.0812
 4162SOL    HW213681   8.434   3.162   2.760 -0.9137  0.1829 -0.4279
 4163SOL     OW13682   8.454   7.754   6.067  0.1285 -0.0304 -0.3889
 4163SOL    HW113683   8.361   7.775   6.073  0.0720  0.6026 -2.5043
 4163SOL    HW213684   8.498   7.838   6.078  0.3754 -0.1350 -0.5655
 4164SOL     OW13685   6.132   0.797   4.905 -0.0190 -0.7174 -0.1100
 4164SOL    HW113686   6.179   0.860   4.849  1.5863 -1.7960 -0.0216
 4164SOL    HW213687   6.072   0.851   4.956  0.9651  0.7019 -0.3884
 4165SOL     OW13688   4.569   2.789   2.517 -0.2945  0.0772  0.0785
 4165SOL    HW113689   4.515   2.810   2.593 -0.3376 -0.3300  0.1606
 4165SOL    HW213690   4.577   2.872   2.469  0.4024  0.5342  0.9515
 4166SOL     OW13691   4.944   1.954   5.868 -0.4409 -0.1286 -0.0252
 4166SOL    HW113692   4.861   1.919   5.901 -0.2614 -0.3623  0.1882
 4166SOL    HW213693   4.933   2.049   5.872 -1.0470 -0.1535 -0.9047
 4167SOL     OW13694   4.905   7.455   1.801 -0.1244  0.4795  0.0002
 4167SOL    HW113695   4.981   7.513   1.801 -0.7609  1.3463  0.1285
 4167SOL    HW213696   4.830   7.514   1.789 -0.6748 -0.4955 -1.7203
 4168SOL     OW13697   6.579   2.810   6.675  0.1844  0.3831 -0.1209
 4168SOL    HW113698   6.647   2.746   6.694 -0.8399 -1.1860 -1.5032
 4168SOL    HW213699   6.620   2.895   6.692  1.2828 -0.6215  2.6975
 4169SOL     OW13700   7.731   6.899   3.526  0.0700  0.9750  0.1445
 4169SOL    HW113701   7.757   6.980   3.570 -2.8501  1.7856  0.5576
 4169SOL    HW213702   7.712   6.838   3.597  0.8496  0.3697 -0.1481
 4170SOL     OW13703   2.292   5.457   7.195 -0.6443  0.1601  0.2579
 4170SOL    HW113704   2.259   5.489   7.111 -1.7979 -1.6505 -0.0281
 4170SOL    HW213705   2.374   5.412   7.174 -1.1319 -0.6357  0.0178
 4171SOL     OW13706   2.804   3.855   5.317  0.8531 -0.3153 -0.4740
 4171SOL    HW113707   2.827   3.805   5.395  1.7369  1.3703  0.4008
 4171SOL    HW213708   2.709   3.870   5.325  0.8458 -0.6132  0.0054
 4172SOL     OW13709   2.480   6.652   5.711 -0.1302  0.4692 -0.2254
 4172SOL    HW113710   2.528   6.604   5.644  1.1320  1.4437 -0.0553
 4172SOL    HW213711   2.532   6.731   5.726 -0.2940  0.2217  1.9893
 4173SOL     OW13712   6.932   4.381   4.894 -0.4744 -0.0438 -0.2969
 4173SOL    HW113713   7.026   4.390   4.909 -0.3933 -1.3034  0.0424
 4173SOL    HW213714   6.892   4.426   4.969 -0.1956  1.7246 -1.1518
 4174SOL     OW13715   4.703   6.792   2.935  0.7218 -0.0020 -0.7770
 4174SOL    HW113716   4.711   6.853   3.008  0.6026  1.0814 -1.6250
 4174SOL    HW213717   4.760   6.829   2.867  0.0926 -0.4487 -1.5664
 4175SOL     OW13718   1.203   1.433   5.971  0.5569  0.2155  0.0047
 4175SOL    HW113719   1.201   1.527   5.990 -1.5384  0.4059 -0.9376
 4175SOL    HW213720   1.258   1.425   5.892 -1.1068  0.9770 -1.2857
 4176SOL     OW13721   3.557   4.728   2.474  0.2003  0.1434 -0.7358
 4176SOL    HW113722   3.592   4.808   2.513  0.9842 -0.0732 -0.9728
 4176SOL    HW213723   3.500   4.692   2.542 -0.1028  0.8559 -0.5997
 4177SOL     OW13724   3.755   6.213   7.732 -0.1344  0.3114 -0.2464
 4177SOL    HW113725   3.682   6.155   7.710  0.4563 -1.0921  1.2946
 4177SOL    HW213726   3.825   6.187   7.672 -0.5725  1.0262 -1.0962
 4178SOL     OW13727   7.525   5.012   6.936  0.0523 -0.6250 -0.6831
 4178SOL    HW113728   7.443   5.045   6.974  1.4429  1.7656  0.5254
 4178SOL    HW213729   7.541   5.068   6.860  0.2242 -1.5734 -1.3695
 4179SOL     OW13730   5.767   3.880   1.654  0.2033  0.4698  0.1206
 4179SOL    HW113731   5.710   3.948   1.618 -0.9797 -0.3938  0.2930
 4179SOL    HW213732   5.772   3.900   1.748  1.6523  1.5535 -0.1452
 4180SOL     OW13733   5.259   3.279   7.465  0.5390  0.0636 -0.4721
 4180SOL    HW113734   5.272   3.369   7.494 -2.2991  0.5953 -0.6210
 4180SOL    HW213735   5.303   3.226   7.533  0.7874  1.4951  0.5328
 4181SOL     OW13736   0.099   8.603   6.265 -0.2260 -0.1475 -0.5763
 4181SOL    HW113737   0.150   8.601   6.346  0.6099 -2.3330 -1.0928
 4181SOL    HW213738   0.151   8.553   6.202 -2.7351 -2.1230 -1.2652
 4182SOL     OW13739   6.561   0.385   5.198  0.2884  0.4568 -0.1690
 4182SOL    HW113740   6.571   0.480   5.202  1.0453  0.3663  0.2107
 4182SOL    HW213741   6.574   0.364   5.105 -1.5213  0.8726 -0.5744
 4183SOL     OW13742   3.301   2.017   7.584  0.9441 -0.0030 -0.5223
 4183SOL    HW113743   3.331   1.933   7.551 -0.5293 -0.4846 -0.6935
 4183SOL    HW213744   3.261   1.997   7.669  0.9055  0.5880 -0.3933
 4184SOL     OW13745   4.406   4.644   0.504  0.2610  0.0343 -0.4054
 4184SOL    HW113746   4.403   4.709   0.574  0.7154 -0.5557  0.1738
 4184SOL    HW213747   4.371   4.690   0.427 -2.1372  0.1064  0.6582
 4185SOL     OW13748   2.478   3.008   5.694 -0.0354  0.2660 -0.1160
 4185SOL    HW113749   2.405   3.056   5.654 -0.2228 -0.3295 -0.5067
 4185SOL    HW213750   2.437   2.932   5.734  0.3379  0.0827 -0.0806
 4186SOL     OW13751   1.183   3.032   6.870  0.0509  0.2113 -0.0797
 4186SOL    HW113752   1.259   3.064   6.920  0.4742 -0.0704 -0.5346
 4186SOL    HW213753   1.220   3.004   6.786 -0.1334 -2.3006  0.5996
 4187SOL     OW13754   8.264   8.184   4.918 -0.9804 -0.4225 -0.1571
 4187SOL    HW113755   8.203   8.141   4.978  0.6663 -2.7570  0.0032
 4187SOL    HW213756   8.336   8.213   4.974 -0.5705 -0.4125 -0.6841
 4188SOL     OW13757   1.008   5.661   8.535 -0.1424  0.0832 -0.2938
 4188SOL    HW113758   1.025   5.684   8.444  0.7550 -0.7641 -0.3532
 4188SOL    HW213759   1.090   5.679   8.580 -0.7278  0.9597  0.4570
 4189SOL     OW13760   2.665   1.638   1.861 -0.0904 -0.0569 -0.4516
 4189SOL    HW113761   2.601   1.583   1.906 -1.6202  0.1492 -2.2658
 4189SOL    HW213762   2.745   1.586   1.859 -0.8472 -1.2530 -0.0862
 4190SOL     OW13763   4.394   5.559   3.863  0.3790 -0.3021 -0.0433
 4190SOL    HW113764   4.462   5.532   3.924  0.7682  0.3270 -0.1846
 4190SOL    HW213765   4.313   5.553   3.913  0.5411 -1.0078  0.1433
 4191SOL     OW13766   4.311   1.060   7.355 -0.1480 -0.0564 -0.8257
 4191SOL    HW113767   4.225   1.097   7.336 -0.9784 -1.3882  0.1429
 4191SOL    HW213768   4.323   0.991   7.289 -0.7189 -1.1868  0.2242
 4192SOL     OW13769   5.633   2.621   0.341  0.3214 -0.2889 -0.7342
 4192SOL    HW113770   5.595   2.708   0.333  1.6878  0.4854  0.5971
 4192SOL    HW213771   5.705   2.621   0.278  0.0048 -0.6552 -1.1005
 4193SOL     OW13772   4.189   7.794   6.728  0.5435 -0.0362  0.3199
 4193SOL    HW113773   4.237   7.863   6.683  0.8322 -0.4927 -0.0911
 4193SOL    HW213774   4.250   7.761   6.794  0.3544  0.1923  0.6133
 4194SOL     OW13775   0.445   0.558   1.355  0.1577  0.1658  0.0791
 4194SOL    HW113776   0.527   0.550   1.307 -0.6292  1.4752 -1.6465
 4194SOL    HW213777   0.446   0.648   1.389  1.0229 -0.9361  3.3379
 4195SOL     OW13778   7.623   7.551   5.449  0.3882  0.4236  0.4933
 4195SOL    HW113779   7.678   7.598   5.512  1.0212 -0.6014  0.7251
 4195SOL    HW213780   7.664   7.566   5.364  1.0806 -0.3848  0.6718
 4196SOL     OW13781   4.516   4.803   5.788  0.0633 -0.9522 -0.3236
 4196SOL    HW113782   4.574   4.743   5.741  0.9590 -0.2216 -0.1616
 4196SOL    HW213783   4.567   4.833   5.862 -0.6862 -0.6403  0.0803
 4197SOL     OW13784   5.812   6.927   5.712 -0.5622  0.2108  0.1608
 4197SOL    HW113785   5.903   6.913   5.736 -0.4697 -3.7684 -1.8247
 4197SOL    HW213786   5.815   6.962   5.623 -0.9741 -0.5481 -0.1535
 4198SOL     OW13787   7.818   3.034   4.387  0.2940 -0.2232 -0.1592
 4198SOL    HW113788   7.822   3.127   4.362  0.9142 -0.0337  0.5921
 4198SOL    HW213789   7.734   3.025   4.432 -0.5148 -0.4126 -1.6535
 4199SOL     OW13790   4.778   3.368   5.105  0.1038 -0.1527  0.4067
 4199SOL    HW113791   4.718   3.420   5.050  0.0185 -1.4352 -0.7790
 4199SOL    HW213792   4.723   3.334   5.175 -0.3483 -0.4683 -0.0907
 4200SOL     OW13793   3.487   8.447   6.653  0.2422  0.5101  0.5391
 4200SOL    HW113794   3.517   8.537   6.644  0.7987  0.2683 -0.1211
 4200SOL    HW213795   3.415   8.439   6.589 -1.4742  1.1574  2.2844
 4201SOL     OW13796   6.915   1.482   8.377  0.0285 -0.2214 -0.1495
 4201SOL    HW113797   6.867   1.562   8.395 -0.5940 -0.6801  0.2666
 4201SOL    HW213798   7.001   1.512   8.348  0.2340  0.5975  1.2060
 4202SOL     OW13799   7.462   2.727   2.575 -0.6971 -0.3998  0.2747
 4202SOL    HW113800   7.501   2.693   2.494  1.1981  2.3362 -0.0956
 4202SOL    HW213801   7.453   2.650   2.631  0.3669 -1.9748 -1.5912
 4203SOL     OW13802   2.902   2.459   3.089 -0.4270 -0.6872  0.1852
 4203SOL    HW113803   2.847   2.392   3.048 -0.5044 -0.1136 -0.6712
 4203SOL    HW213804   2.975   2.471   3.028  0.7563 -1.5350  1.3643
 4204SOL     OW13805   7.954   7.084   5.419  0.2575  0.1906  0.4668
 4204SOL    HW113806   8.041   7.124   5.422 -0.4185  1.8701 -0.4511
 4204SOL    HW213807   7.934   7.063   5.510  1.3309  0.4566  0.7795
 4205SOL     OW13808   8.010   4.733   7.032 -0.1777 -0.1004  0.1204
 4205SOL    HW113809   8.044   4.644   7.026  1.1071  0.1686  2.1385
 4205SOL    HW213810   7.933   4.725   7.088 -1.0205 -0.1258 -1.0076
 4206SOL     OW13811   7.491   8.563   7.317  0.5844 -0.2123 -0.1666
 4206SOL    HW113812   7.406   8.606   7.310  1.0668  0.5411 -1.8508
 4206SOL    HW213813   7.534   8.606   7.390  0.0367  0.3316 -0.1569
 4207SOL     OW13814   3.725   4.165   0.156 -0.1219  0.3294  0.0953
 4207SOL    HW113815   3.796   4.131   0.102 -1.3287  2.3960 -3.1213
 4207SOL    HW213816   3.769   4.218   0.223  1.4060 -0.1168 -0.5114
 4208SOL     OW13817   5.842   2.097   7.009  0.0865  0.3520 -0.1948
 4208SOL    HW113818   5.833   2.148   6.928 -0.1786  0.4161 -0.1275
 4208SOL    HW213819   5.925   2.125   7.047  1.7550 -1.8347 -1.9573
 4209SOL     OW13820   6.481   4.217   5.754  0.3752 -0.3023 -0.4317
 4209SOL    HW113821   6.540   4.206   5.680  1.1472  0.8781 -0.0256
 4209SOL    HW213822   6.523   4.283   5.809 -0.5431 -0.6070  0.6872
 4210SOL     OW13823   6.670   0.997   1.669 -0.1343 -0.5460 -0.3654
 4210SOL    HW113824   6.598   1.019   1.609 -1.5597 -0.2137  1.3607
 4210SOL    HW213825   6.687   1.078   1.716  1.2827 -0.6817 -0.6230
 4211SOL     OW13826   3.595   8.278   7.067 -1.0309 -0.1855  0.0428
 4211SOL    HW113827   3.589   8.185   7.085 -2.1154  0.0003  0.6720
 4211SOL    HW213828   3.505   8.306   7.051 -0.7892  0.8665  0.4275
 4212SOL     OW13829   0.780   1.774   1.030  0.0449 -0.3430 -0.5207
 4212SOL    HW113830   0.800   1.680   1.028 -0.9654 -0.5843  0.0610
 4212SOL    HW213831   0.752   1.794   0.941  1.8061 -0.2223 -1.0785
 4213SOL     OW13832   7.716   5.362   5.725  0.2370 -0.1199 -0.0581
 4213SOL    HW113833   7.750   5.273   5.716 -1.3539 -0.7068 -0.5113
 4213SOL    HW213834   7.729   5.383   5.818  1.1881 -0.5750 -0.0797
 4214SOL     OW13835   6.006   5.722   6.683 -0.1408 -0.3032  0.2901
 4214SOL    HW113836   5.969   5.676   6.758 -1.5877 -1.6466 -1.1598
 4214SOL    HW213837   5.952   5.801   6.675  0.2608  0.0339  0.8803
 4215SOL     OW13838   0.911   0.898   1.299  0.2946  0.3904 -0.3943
 4215SOL    HW113839   0.967   0.924   1.372 -1.2475 -0.7832  1.3038
 4215SOL    HW213840   0.824   0.932   1.322 -0.5678 -1.3893 -0.8617
 4216SOL     OW13841   0.440   1.061   2.008 -0.1795  0.0636 -0.1761
 4216SOL    HW113842   0.438   1.111   1.927 -1.1066  0.8481  0.3114
 4216SOL    HW213843   0.350   1.061   2.040  0.3101  0.5586  1.3134
 4217SOL     OW13844   4.508   0.242   0.886 -0.0417 -0.5425 -0.0149
 4217SOL    HW113845   4.448   0.175   0.853 -0.2553  0.1664 -1.1466
 4217SOL    HW213846   4.576   0.248   0.819  0.4220 -0.2090  0.4777
 4218SOL     OW13847   2.418   2.662   6.916 -0.3002  0.6288 -0.1457
 4218SOL    HW113848   2.499   2.713   6.922  0.0944 -0.1759  2.2672
 4218SOL    HW213849   2.356   2.709   6.973 -0.4767 -0.5608  0.6820
 4219SOL     OW13850   1.420   5.497   1.475 -0.3233  0.3778  0.7730
 4219SOL    HW113851   1.465   5.416   1.450 -2.0723 -0.4404  0.0706
 4219SOL    HW213852   1.490   5.560   1.492  1.0521 -0.6197 -0.9281
 4220SOL     OW13853   5.295   4.833   7.376 -0.2165  0.0750 -0.4473
 4220SOL    HW113854   5.205   4.863   7.394 -0.0558  0.1464  0.2344
 4220SOL    HW213855   5.305   4.847   7.282 -1.1428 -0.5266 -0.6552
 4221SOL     OW13856   0.865   2.220   0.391  0.3400 -0.3718 -0.2185
 4221SOL    HW113857   0.894   2.254   0.306 -0.5330  0.3667 -0.2449
 4221SOL    HW213858   0.911   2.137   0.401 -0.0406 -0.8042 -1.7356
 4222SOL     OW13859   5.665   1.221   1.580  0.4030  0.1690 -0.7365
 4222SOL    HW113860   5.743   1.200   1.632 -1.5150 -1.3409  1.7925
 4222SOL    HW213861   5.631   1.301   1.620  0.5163  0.7331 -1.7315
 4223SOL     OW13862   6.836   6.723   5.987  0.0289  0.6891  1.0319
 4223SOL    HW113863   6.829   6.782   6.062  2.1671  1.6174  0.5693
 4223SOL    HW213864   6.771   6.655   6.004  0.7754  0.5795  4.0292
 4224SOL     OW13865   1.228   1.939   8.138  0.3552  0.2517 -0.2217
 4224SOL    HW113866   1.301   1.973   8.085 -0.9263  1.2847 -1.4040
 4224SOL    HW213867   1.196   1.863   8.089  0.4395 -0.0175  0.1377
 4225SOL     OW13868   4.684   2.507   0.199 -0.6870 -0.0441  0.4677
 4225SOL    HW113869   4.755   2.560   0.162 -1.2556  0.0904 -0.4467
 4225SOL    HW213870   4.720   2.419   0.203 -0.3329  0.0944  0.3709
 4226SOL     OW13871   2.849   5.644   6.814 -0.3686 -0.3128  0.1372
 4226SOL    HW113872   2.920   5.595   6.773 -1.7335 -1.2811 -1.1666
 4226SOL    HW213873   2.782   5.651   6.746 -1.2725  1.1487  1.1136
 4227SOL     OW13874   7.129   8.160   2.107  0.2373  0.1217  0.1502
 4227SOL    HW113875   7.117   8.137   2.199  1.5405  2.2293  0.9463
 4227SOL    HW213876   7.198   8.101   2.076 -2.4959 -2.9086 -0.5626
 4228SOL     OW13877   4.406   6.840   3.860  0.0950 -0.3178  0.4508
 4228SOL    HW113878   4.421   6.930   3.886 -1.2489  0.7442 -2.1236
 4228SOL    HW213879   4.493   6.800   3.861  0.6677  0.8648  1.9067
 4229SOL     OW13880   1.577   6.230   7.944 -0.6038 -0.0531 -0.1644
 4229SOL    HW113881   1.534   6.311   7.917 -0.0872  0.4898  0.5849
 4229SOL    HW213882   1.598   6.185   7.862 -1.5228  0.2277 -0.5698
 4230SOL     OW13883   5.938   7.016   2.344  0.0655 -0.1897  0.3489
 4230SOL    HW113884   5.856   6.996   2.390 -0.0570  0.6734  0.5265
 4230SOL    HW213885   5.963   6.933   2.303 -1.1469 -0.3585 -0.1058
 4231SOL     OW13886   2.005   7.193   1.536 -0.4644 -0.2836 -0.0906
 4231SOL    HW113887   1.948   7.131   1.491 -1.0567  0.7812 -0.8492
 4231SOL    HW213888   2.008   7.269   1.479 -1.1168  1.0691  1.5722
 4232SOL     OW13889   3.941   3.103   1.757  0.5899 -0.1367 -0.1007
 4232SOL    HW113890   3.909   3.014   1.769 -2.8103  0.8048 -1.0188
 4232SOL    HW213891   4.022   3.093   1.707  0.0826 -2.6781 -0.5513
 4233SOL     OW13892   6.892   7.897   6.613 -0.0174  0.0845 -0.6275
 4233SOL    HW113893   6.980   7.861   6.600 -0.0973  0.1788 -1.5235
 4233SOL    HW213894   6.861   7.854   6.693  0.5601 -0.5116 -0.7057
 4234SOL     OW13895   4.816   5.677   1.112 -0.1868 -0.1032  0.3944
 4234SOL    HW113896   4.830   5.677   1.207  2.2998  1.7882  0.1363
 4234SOL    HW213897   4.833   5.768   1.086  0.6662 -0.8866 -2.0391
 4235SOL     OW13898   5.997   2.275   5.522  0.4765  0.3237 -0.5369
 4235SOL    HW113899   5.981   2.346   5.583 -1.5582 -0.5571  0.0645
 4235SOL    HW213900   5.911   2.260   5.481  1.6665  0.6554 -3.3981
 4236SOL     OW13901   6.975   1.665   4.598 -0.5020 -0.3178 -0.2828
 4236SOL    HW113902   7.067   1.645   4.580  0.0089  0.0139  1.6834
 4236SOL    HW213903   6.969   1.760   4.592 -0.8657 -0.3782 -0.9695
 4237SOL     OW13904   7.787   5.350   4.593  0.6475 -0.1100  0.0691
 4237SOL    HW113905   7.790   5.402   4.513  0.4775 -0.4550 -0.1612
 4237SOL    HW213906   7.847   5.395   4.653  0.6547  0.2365 -0.1966
 4238SOL     OW13907   2.796   2.547   3.892  0.1250 -0.0030 -0.4293
 4238SOL    HW113908   2.735   2.477   3.866 -0.0900 -0.9281  2.2157
 4238SOL    HW213909   2.744   2.603   3.950  1.0542  0.8293 -0.3786
 4239SOL     OW13910   7.911   6.368   5.532  0.1360  0.4845  0.6258
 4239SOL    HW113911   7.981   6.339   5.473 -0.5075  0.3233 -0.0812
 4239SOL    HW213912   7.921   6.463   5.538  0.2942  0.4841  0.3586
 4240SOL     OW13913   3.032   2.521   0.228 -0.0619 -0.2702 -0.9267
 4240SOL    HW113914   3.049   2.427   0.238 -0.2774 -0.1427  1.1726
 4240SOL    HW213915   2.976   2.543   0.303  1.8098  1.9605 -0.0433
 4241SOL     OW13916   7.109   4.490   7.257 -0.0243 -0.1783 -0.2250
 4241SOL    HW113917   7.099   4.572   7.306  1.6415  0.2786 -0.6091
 4241SOL    HW213918   7.170   4.438   7.309 -0.3974 -0.8418 -0.4287
 4242SOL     OW13919   5.092   6.954   1.110  0.1214  0.0748 -0.0212
 4242SOL    HW113920   5.038   6.883   1.144 -0.7652 -1.3624 -3.9127
 4242SOL    HW213921   5.030   7.026   1.093 -0.4150 -0.8855 -2.6583
 4243SOL     OW13922   5.109   7.284   1.741  0.6144 -0.1987  0.2920
 4243SOL    HW113923   5.051   7.326   1.804 -0.9148 -1.5404 -0.1620
 4243SOL    HW213924   5.057   7.277   1.661  1.1893 -1.9369  0.0385
 4244SOL     OW13925   7.092   0.212   6.186  0.2708 -0.3710  0.2939
 4244SOL    HW113926   7.086   0.198   6.092 -0.0540  3.1747 -0.3468
 4244SOL    HW213927   7.185   0.199   6.207  0.2817 -1.5237 -0.3966
 4245SOL     OW13928   7.832   2.439   1.799 -0.4721  0.3815  0.3582
 4245SOL    HW113929   7.740   2.452   1.822 -0.8105 -0.6947 -0.3185
 4245SOL    HW213930   7.879   2.442   1.882 -1.1940  0.3402  0.7721
 4246SOL     OW13931   2.620   0.795   0.995  0.2751 -0.0605  0.1157
 4246SOL    HW113932   2.689   0.860   1.006 -0.4577  0.8117 -0.2872
 4246SOL    HW213933   2.576   0.821   0.914 -0.6175 -0.5003  0.4491
 4247SOL     OW13934   8.543   0.538   1.891 -0.1214  0.4978  0.9013
 4247SOL    HW113935   8.537   0.478   1.817  0.5869  0.4112  0.8995
 4247SOL    HW213936   8.455   0.540   1.928 -0.2437 -0.2585  0.6779
 4248SOL     OW13937   4.962   6.523   5.116  0.0539 -0.1081 -0.0073
 4248SOL    HW113938   4.994   6.533   5.206  2.2421  1.4594 -0.8584
 4248SOL    HW213939   4.896   6.592   5.107 -1.3223 -1.2652  0.8000
 4249SOL     OW13940   0.305   2.852   2.010  0.0464  0.2277 -0.0238
 4249SOL    HW113941   0.322   2.916   2.079 -0.1546  1.9343 -1.4894
 4249SOL    HW213942   0.392   2.831   1.975  0.0993 -0.2018  0.3573
 4250SOL     OW13943   2.123   5.816   6.784 -0.0750  0.7928 -0.4472
 4250SOL    HW113944   2.088   5.815   6.873 -1.9332 -0.7507 -1.1380
 4250SOL    HW213945   2.174   5.897   6.779 -0.8110  1.4395  1.6808
 4251SOL     OW13946   0.106   4.506   5.502 -0.8511  0.1155 -0.4810
 4251SOL    HW113947   0.101   4.601   5.512  0.4392  0.2444 -0.9513
 4251SOL    HW213948   0.018   4.475   5.524 -1.6040  1.5104 -1.4227
 4252SOL     OW13949   6.283   3.506   3.754 -0.5974  0.2149  0.3446
 4252SOL    HW113950   6.202   3.458   3.770  0.1981 -0.5502  2.3543
 4252SOL    HW213951   6.351   3.438   3.756  0.1978  0.9704 -0.3860
 4253SOL     OW13952   6.792   7.874   1.191 -0.7851  0.1817  0.3731
 4253SOL    HW113953   6.847   7.876   1.269 -0.9690 -0.9963  0.5565
 4253SOL    HW213954   6.848   7.839   1.122 -0.7658  0.7555  0.0940
 4254SOL     OW13955   2.882   2.882   7.793  0.2949 -0.3223 -0.2134
 4254SOL    HW113956   2.935   2.955   7.762  2.3169 -1.7248 -0.2826
 4254SOL    HW213957   2.880   2.892   7.888 -0.5708  0.5373 -0.3164
 4255SOL     OW13958   1.781   6.007   2.853 -0.0136 -0.0631  0.1122
 4255SOL    HW113959   1.752   6.014   2.944 -0.6057  0.3198 -0.0988
 4255SOL    HW213960   1.736   6.078   2.808  1.4082  0.6760 -0.2086
 4256SOL     OW13961   6.943   4.448   3.687  0.1213  0.0383 -0.7472
 4256SOL    HW113962   6.863   4.478   3.644 -0.7737 -0.0254  0.8033
 4256SOL    HW213963   7.009   4.512   3.660 -0.9625  1.4056 -0.2728
 4257SOL     OW13964   3.761   1.936   2.284 -0.1339 -1.1163  0.2000
 4257SOL    HW113965   3.810   1.960   2.205 -1.3207 -1.6068 -0.7270
 4257SOL    HW213966   3.759   2.016   2.337 -0.6708 -0.2920 -1.0173
 4258SOL     OW13967   6.319   6.698   1.108  0.0417  0.5333  0.6850
 4258SOL    HW113968   6.389   6.712   1.044 -0.4199  1.1168  0.2935
 4258SOL    HW213969   6.310   6.603   1.113 -0.4880  0.4802 -0.7798
 4259SOL     OW13970   0.389   1.860   1.188  0.3001 -0.1428  0.7018
 4259SOL    HW113971   0.464   1.887   1.241 -0.9874  0.7965  2.1529
 4259SOL    HW213972   0.386   1.924   1.117  0.5126  0.1934  0.9901
 4260SOL     OW13973   2.351   8.001   3.968  0.0378 -0.2241 -0.7804
 4260SOL    HW113974   2.313   8.038   4.048  2.6094 -0.0019  0.4255
 4260SOL    HW213975   2.324   8.062   3.898 -1.2159  0.2608  0.0893
 4261SOL     OW13976   6.258   6.399   6.725  0.5169 -0.3100 -0.4413
 4261SOL    HW113977   6.255   6.487   6.763 -0.3325 -0.7857  0.6549
 4261SOL    HW213978   6.310   6.409   6.645 -1.3711  1.6209 -1.5324
 4262SOL     OW13979   5.514   3.399   1.992 -0.3090  0.4238 -0.1657
 4262SOL    HW113980   5.544   3.406   1.902 -0.0851 -0.8484 -0.2135
 4262SOL    HW213981   5.594   3.400   2.044 -0.5065  3.5211  0.2655
 4263SOL     OW13982   5.535   6.927   7.520  0.0614 -0.3756  1.0164
 4263SOL    HW113983   5.510   6.937   7.612 -1.0044 -1.2683  0.8515
 4263SOL    HW213984   5.517   7.013   7.480 -0.0853 -0.1797  1.5028
 4264SOL     OW13985   2.866   1.239   2.225 -0.3455 -0.4024  0.6867
 4264SOL    HW113986   2.925   1.227   2.300 -0.7738 -0.8575  0.9544
 4264SOL    HW213987   2.790   1.284   2.262 -0.5468 -0.6065  0.5221
 4265SOL     OW13988   5.663   5.043   4.344  0.3695 -0.3790  0.3879
 4265SOL    HW113989   5.678   5.131   4.311 -1.6994  0.1071  0.5950
 4265SOL    HW213990   5.724   4.988   4.295  1.1299  1.0336 -0.3167
 4266SOL     OW13991   1.351   2.160   6.469  0.4617 -0.6103 -0.2338
 4266SOL    HW113992   1.434   2.185   6.429  0.4397  1.1510  0.7088
 4266SOL    HW213993   1.299   2.124   6.397  1.7371 -0.9762 -0.9960
 4267SOL     OW13994   5.849   2.406   2.096  0.1265 -0.0253  0.4361
 4267SOL    HW113995   5.782   2.410   2.165 -0.1403  0.9503  0.1400
 4267SOL    HW213996   5.886   2.494   2.094  0.1249 -0.0425 -0.6707
 4268SOL     OW13997   7.734   2.649   1.528  0.2297 -0.2886  0.3471
 4268SOL    HW113998   7.657   2.645   1.470  0.3703  0.9219  0.0542
 4268SOL    HW213999   7.753   2.558   1.548 -1.2551 -0.6212  0.3759
 4269SOL     OW14000   5.080   5.671   3.254  0.0082 -0.3205  0.0820
 4269SOL    HW114001   5.009   5.709   3.306  0.4986  0.0669  0.4680
 4269SOL    HW214002   5.137   5.630   3.318  0.3470 -0.2857 -0.1977
 4270SOL     OW14003   3.251   2.309   6.454 -0.3793 -0.3269  0.0645
 4270SOL    HW114004   3.210   2.344   6.375  2.2130 -0.8991 -1.6575
 4270SOL    HW214005   3.233   2.215   6.450  0.3754 -0.4655 -0.2871
 4271SOL     OW14006   2.158   4.292   2.735  0.4881 -0.1040 -0.0519
 4271SOL    HW114007   2.078   4.243   2.752 -0.1341  1.0314  0.3642
 4271SOL    HW214008   2.228   4.233   2.764 -0.3431  0.1631  2.7610
 4272SOL     OW14009   4.241   2.615   0.048  0.5811 -0.4036  0.2516
 4272SOL    HW114010   4.306   2.659  -0.008 -0.0808 -1.4624 -1.4489
 4272SOL    HW214011   4.177   2.580  -0.014 -0.2337 -1.5998  1.7079
 4273SOL     OW14012   3.216   2.856   4.036 -0.0864  0.2076  0.4199
 4273SOL    HW114013   3.189   2.764   4.039 -1.1312  0.4778 -0.1660
 4273SOL    HW214014   3.270   2.868   4.114  0.8790 -1.1470 -0.0002
 4274SOL     OW14015   1.702   2.251   1.383  0.2428  0.2700  0.1757
 4274SOL    HW114016   1.769   2.196   1.343  0.5966  0.7999  0.0283
 4274SOL    HW214017   1.748   2.297   1.454 -0.4359 -0.8518  1.3729
 4275SOL     OW14018   3.818   7.946   0.463  0.1504 -0.2004  0.1936
 4275SOL    HW114019   3.867   7.983   0.390  2.1068 -0.0731  1.4630
 4275SOL    HW214020   3.734   7.920   0.426  1.5498 -1.4119 -2.3913
 4276SOL     OW14021   0.499   7.440   3.843 -0.8694  0.4950  0.6304
 4276SOL    HW114022   0.437   7.398   3.903 -0.5270 -0.8425  0.0861
 4276SOL    HW214023   0.498   7.532   3.869 -3.0492  0.5244  0.6542
 4277SOL     OW14024   7.716   5.022   0.030 -0.0705  0.3197  0.0395
 4277SOL    HW114025   7.792   5.036  -0.026  0.6350  2.4922  1.4194
 4277SOL    HW214026   7.648   4.988  -0.028  0.7283  2.1127 -2.0438
 4278SOL     OW14027   2.412   6.955   8.438 -0.2958  0.2067 -0.4307
 4278SOL    HW114028   2.405   7.042   8.476 -0.7489  0.0426 -0.1246
 4278SOL    HW214029   2.506   6.943   8.421  0.0104  0.0732  1.1569
 4279SOL     OW14030   1.974   2.910   8.570 -0.5925  0.2784 -0.2747
 4279SOL    HW114031   2.055   2.864   8.588 -0.8049  0.1641  0.4429
 4279SOL    HW214032   1.983   2.942   8.481  0.3846  0.5652 -0.0838
 4280SOL     OW14033   0.878   1.059   6.837 -0.1741 -0.0099 -0.1400
 4280SOL    HW114034   0.883   1.008   6.918  0.2519 -0.9888 -0.7700
 4280SOL    HW214035   0.874   0.994   6.768  2.0796  0.7567 -1.0904
 4281SOL     OW14036   1.391   4.949   8.013 -0.4942  0.4698  0.2591
 4281SOL    HW114037   1.384   5.034   8.058 -2.9766 -0.4034  1.7332
 4281SOL    HW214038   1.349   4.964   7.928 -1.5974  0.5889  0.8014
 4282SOL     OW14039   4.570   2.176   2.574 -0.1595 -0.4588  0.2139
 4282SOL    HW114040   4.595   2.268   2.562  1.2558 -1.1013 -2.4606
 4282SOL    HW214041   4.559   2.142   2.485 -2.0518 -2.5598  1.1498
 4283SOL     OW14042   0.934   2.571   7.368  0.3825 -0.0265  0.0024
 4283SOL    HW114043   0.963   2.482   7.346  0.8070  0.4607 -1.5880
 4283SOL    HW214044   1.005   2.627   7.336 -1.0652  1.0424 -1.4937
 4284SOL     OW14045   4.170   7.601   5.813  0.2514 -0.1780  0.7661
 4284SOL    HW114046   4.244   7.649   5.776  0.2783  1.0632  2.3328
 4284SOL    HW214047   4.100   7.611   5.749  1.2677 -1.0090 -0.5430
 4285SOL     OW14048   5.794   8.457   5.270  0.2035  0.4163  0.1181
 4285SOL    HW114049   5.726   8.392   5.286  1.6944 -0.8130  1.9020
 4285SOL    HW214050   5.831   8.433   5.186  2.2442 -2.6362  1.6995
 4286SOL     OW14051   4.679   5.767   8.428 -0.5154 -0.1541  0.4020
 4286SOL    HW114052   4.603   5.764   8.370 -0.4429  0.8487  0.2392
 4286SOL    HW214053   4.751   5.734   8.375 -0.8913 -1.4820  0.6771
 4287SOL     OW14054   3.631   3.497   4.432  0.2020  0.1762 -0.1595
 4287SOL    HW114055   3.592   3.582   4.413 -0.9000  0.0241  1.2376
 4287SOL    HW214056   3.567   3.433   4.401 -0.3906 -0.0783  1.4479
 4288SOL     OW14057   8.482   3.610   7.713 -0.3305  0.7558 -0.7734
 4288SOL    HW114058   8.496   3.530   7.765  1.0228  0.7844 -1.0626
 4288SOL    HW214059   8.413   3.657   7.760  0.5687  0.5837  0.7865
 4289SOL     OW14060   0.007   6.186   1.009  0.5085  0.2452  0.6046
 4289SOL    HW114061  -0.084   6.212   0.998  0.4429 -0.1159  0.2439
 4289SOL    HW214062   0.055   6.268   1.020  0.2753  0.5012 -0.2277
 4290SOL     OW14063   1.828   1.667   3.898 -0.0926 -0.2486  0.0014
 4290SOL    HW114064   1.915   1.641   3.867  0.5138  2.7058 -1.0895
 4290SOL    HW214065   1.845   1.732   3.965 -1.4420  0.6210 -0.4727
 4291SOL     OW14066   0.362   5.666   0.708  0.0850  0.7047 -0.3391
 4291SOL    HW114067   0.357   5.738   0.645  0.4434 -0.3639 -1.6334
 4291SOL    HW214068   0.452   5.635   0.702  0.0287  0.3565  0.4620
 4292SOL     OW14069   4.564   1.300   6.262  0.0917  0.2289 -0.4536
 4292SOL    HW114070   4.532   1.277   6.175 -0.3680 -1.3976  0.1101
 4292SOL    HW214071   4.656   1.276   6.262 -0.1774 -0.8431 -0.1493
 4293SOL     OW14072   4.222   7.580   3.535 -0.4309 -0.1257 -0.0484
 4293SOL    HW114073   4.297   7.594   3.593 -0.0601 -0.7264 -0.3692
 4293SOL    HW214074   4.249   7.620   3.452 -1.1919  1.2480  0.3471
 4294SOL     OW14075   2.414   5.731   8.536 -0.3969  0.1474  0.0227
 4294SOL    HW114076   2.403   5.794   8.608 -1.7437  1.6448 -1.4215
 4294SOL    HW214077   2.509   5.727   8.522 -0.1950  0.7066  1.1199
 4295SOL     OW14078   3.895   4.160   5.387 -0.2352  0.1518  0.1194
 4295SOL    HW114079   3.888   4.225   5.457  0.6806 -0.6799  1.0125
 4295SOL    HW214080   3.987   4.133   5.388 -0.2778 -0.1252 -1.1909
 4296SOL     OW14081   4.541   7.656   8.127 -0.0901  0.4951  0.3890
 4296SOL    HW114082   4.471   7.715   8.153 -0.6554 -0.7953  1.9866
 4296SOL    HW214083   4.621   7.700   8.152 -0.5022  0.6326  1.5163
 4297SOL     OW14084   5.941   4.667   1.468 -0.7017  0.0983 -0.0131
 4297SOL    HW114085   5.984   4.610   1.404 -0.1494  0.5767 -0.0738
 4297SOL    HW214086   5.863   4.700   1.423 -0.3294  0.4099 -0.4335
 4298SOL     OW14087   0.718   2.837   7.629  0.3520 -0.1667 -0.6565
 4298SOL    HW114088   0.629   2.843   7.664  0.2933 -1.5558 -0.5177
 4298SOL    HW214089   0.729   2.745   7.606  1.5926  0.0738 -1.1267
 4299SOL     OW14090   5.183   0.309   3.663  0.1011 -0.3489 -0.0417
 4299SOL    HW114091   5.165   0.403   3.654 -0.0380 -0.3864 -0.1535
 4299SOL    HW214092   5.113   0.266   3.614 -1.1049 -0.6042  1.8262
 4300SOL     OW14093   5.912   3.529   7.767  0.4757  0.0807 -0.0376
 4300SOL    HW114094   5.833   3.475   7.765  1.9189 -2.2407  0.8965
 4300SOL    HW214095   5.950   3.518   7.680 -0.0396  0.9113 -0.3719
 4301SOL     OW14096   7.545   3.728   6.334 -0.3553 -0.1200  0.3794
 4301SOL    HW114097   7.628   3.707   6.377 -0.5276 -0.0748  0.7359
 4301SOL    HW214098   7.559   3.702   6.243 -0.6775 -2.1801  0.8513
 4302SOL     OW14099   4.752   3.818   2.045  0.4601 -0.1801  0.3682
 4302SOL    HW114100   4.841   3.833   2.079  1.3512 -1.0714 -1.4189
 4302SOL    HW214101   4.708   3.769   2.114  1.0150  1.0815  1.6864
 4303SOL     OW14102   6.439   5.118   7.875 -0.3428  0.1956 -0.8983
 4303SOL    HW114103   6.407   5.049   7.932  0.7031  0.0352 -0.4826
 4303SOL    HW214104   6.405   5.096   7.788 -2.2870  0.6602 -0.2977
 4304SOL     OW14105   6.809   6.882   4.154 -0.8008  0.3429 -0.1212
 4304SOL    HW114106   6.887   6.842   4.116  0.5231  2.4013  0.2973
 4304SOL    HW214107   6.770   6.812   4.207  1.1021 -0.5590  0.1750
 4305SOL     OW14108   7.579   1.065   1.841 -0.2994 -0.0173 -0.2472
 4305SOL    HW114109   7.544   1.067   1.753  0.2808  1.3980 -0.4728
 4305SOL    HW214110   7.600   0.973   1.857 -1.3498 -0.4342 -1.1882
 4306SOL     OW14111   1.477   8.457   7.379 -0.2732 -0.8651 -0.6859
 4306SOL    HW114112   1.395   8.417   7.406 -0.1175 -0.4421  0.4421
 4306SOL    HW214113   1.521   8.389   7.328 -0.4520 -1.7902  0.3595
 4307SOL     OW14114   7.030   6.170   4.325 -0.7830 -0.1606 -0.6534
 4307SOL    HW114115   6.948   6.177   4.277  0.1207 -1.1523 -2.4558
 4307SOL    HW214116   7.097   6.195   4.262  0.5008 -1.9124 -0.0745
 4308SOL     OW14117   8.178   8.385   6.045 -0.2134  0.2956  0.0321
 4308SOL    HW114118   8.157   8.340   6.126  0.0277  0.2522  0.0706
 4308SOL    HW214119   8.093   8.401   6.003 -0.4619  1.6287  0.9911
 4309SOL     OW14120   2.162   5.330   3.876 -0.9119 -0.1646  0.1293
 4309SOL    HW114121   2.105   5.340   3.800 -1.1573 -1.2785  0.1542
 4309SOL    HW214122   2.245   5.371   3.849 -1.3968  0.5921 -0.2543
 4310SOL     OW14123   5.308   6.001   4.915  0.4144 -0.0635 -0.6803
 4310SOL    HW114124   5.288   5.910   4.891 -0.8610 -0.6209  2.0985
 4310SOL    HW214125   5.256   6.053   4.854 -0.1013 -1.2508 -1.3004
 4311SOL     OW14126   6.428   4.802   4.674 -0.4793 -0.1976  0.1711
 4311SOL    HW114127   6.334   4.785   4.674 -0.8819  1.7449  0.4428
 4311SOL    HW214128   6.439   4.878   4.617  0.8152  0.1113  0.7719
 4312SOL     OW14129   0.724   3.719   3.752  0.1836 -0.0545  0.6610
 4312SOL    HW114130   0.759   3.714   3.663 -0.5547 -2.3329  0.4535
 4312SOL    HW214131   0.766   3.648   3.799 -1.7114 -0.8417  1.2730
 4313SOL     OW14132   7.820   3.345   5.752 -0.1367 -0.4948  0.5081
 4313SOL    HW114133   7.859   3.259   5.737  1.2281  0.0871  0.5112
 4313SOL    HW214134   7.841   3.395   5.673 -2.9851 -0.8156 -0.5654
 4314SOL     OW14135   8.127   7.417   5.378 -0.1869 -0.2308 -0.1853
 4314SOL    HW114136   8.139   7.322   5.368 -0.8731 -0.1163 -3.2576
 4314SOL    HW214137   8.215   7.452   5.385  0.1804 -0.9729 -0.8978
 4315SOL     OW14138   3.830   2.380   7.035  0.0556  0.0844  0.2867
 4315SOL    HW114139   3.855   2.323   6.963  1.4617  0.8948  0.0904
 4315SOL    HW214140   3.740   2.356   7.055 -0.5384  0.1967 -2.0653
 4316SOL     OW14141   4.670   3.184   6.530  0.2645 -0.7299 -0.5472
 4316SOL    HW114142   4.729   3.253   6.499 -0.6931  0.4689  0.2375
 4316SOL    HW214143   4.652   3.207   6.621 -1.1279 -1.2736 -0.6713
 4317SOL     OW14144   2.772   2.395   6.144  0.1630 -0.3950  0.4318
 4317SOL    HW114145   2.786   2.488   6.160  0.6722 -0.5022  0.6579
 4317SOL    HW214146   2.767   2.387   6.049 -1.4450  0.0623  0.4506
 4318SOL     OW14147   8.427   8.527   8.392  0.0785 -0.3244  0.2048
 4318SOL    HW114148   8.370   8.604   8.387 -0.9319 -0.9625  1.4228
 4318SOL    HW214149   8.515   8.563   8.395 -0.3983  0.8336  1.3422
 4319SOL     OW14150   6.354   8.465   3.146 -0.5569 -0.2895  0.0615
 4319SOL    HW114151   6.386   8.554   3.164  1.5270 -0.9918  0.0644
 4319SOL    HW214152   6.311   8.471   3.061 -0.3313  0.6901  0.0071
 4320SOL     OW14153   0.215   4.790   5.348  0.4124  0.1856  0.4893
 4320SOL    HW114154   0.281   4.843   5.393  1.6096  1.1845 -2.2421
 4320SOL    HW214155   0.259   4.706   5.331  1.6030  1.2649 -2.4182
 4321SOL     OW14156   4.262   8.253   7.795 -0.2026  0.1854  0.3016
 4321SOL    HW114157   4.309   8.281   7.717  0.0844  0.7442  0.6680
 4321SOL    HW214158   4.203   8.184   7.765 -1.5962  1.7886 -0.7972
 4322SOL     OW14159   7.045   5.218   8.173  0.4829 -0.3455 -0.3848
 4322SOL    HW114160   7.095   5.259   8.243  2.4646 -1.9639 -0.7817
 4322SOL    HW214161   6.994   5.290   8.135 -0.7045  0.5707  2.6849
 4323SOL     OW14162   5.277   6.568   2.329  0.0244 -0.2274 -0.1826
 4323SOL    HW114163   5.246   6.658   2.318  1.1494  0.2188  0.1160
 4323SOL    HW214164   5.272   6.552   2.423  1.5145  0.1867 -0.0057
 4324SOL     OW14165   8.470   7.535   7.554 -0.4769 -0.4191 -0.0838
 4324SOL    HW114166   8.474   7.442   7.533  0.2310 -0.0911 -1.5701
 4324SOL    HW214167   8.533   7.576   7.494 -0.4345  0.9635  0.8537
 4325SOL     OW14168   2.362   6.995   5.522 -0.3386 -0.4122 -0.5614
 4325SOL    HW114169   2.416   6.932   5.570  2.1543 -0.6292 -3.3626
 4325SOL    HW214170   2.397   7.081   5.546 -1.5115 -0.2485  0.6827
 4326SOL     OW14171   0.595   5.561   5.243  0.1390 -0.5662  0.4317
 4326SOL    HW114172   0.603   5.614   5.323  0.6816  0.5331 -0.3228
 4326SOL    HW214173   0.590   5.471   5.275 -2.1917 -0.0140  1.8207
 4327SOL     OW14174   7.505   3.739   4.406  0.1664  0.0202 -0.7972
 4327SOL    HW114175   7.478   3.819   4.361 -0.7426 -0.6500 -1.4984
 4327SOL    HW214176   7.435   3.724   4.470  0.1275 -0.4169 -0.9418
 4328SOL     OW14177   3.495   8.272   8.442  0.6854 -0.9001 -0.0075
 4328SOL    HW114178   3.509   8.224   8.361 -0.1651  0.8189 -1.2578
 4328SOL    HW214179   3.403   8.300   8.437  1.0040  0.4034  0.8692
 4329SOL     OW14180   1.877   1.432   2.033 -0.6851  0.0627  0.2169
 4329SOL    HW114181   1.821   1.356   2.048  0.1086 -0.2750  1.5459
 4329SOL    HW214182   1.884   1.475   2.118 -0.2978  1.0663 -0.3019
 4330SOL     OW14183   5.704   2.733   2.310 -0.2428  0.4518 -0.2790
 4330SOL    HW114184   5.691   2.807   2.249 -0.0912  0.3745 -0.4056
 4330SOL    HW214185   5.675   2.767   2.394 -0.8216  0.4337 -0.4705
 4331SOL     OW14186   4.642   3.234   3.150 -0.5963  0.0800  0.0593
 4331SOL    HW114187   4.586   3.156   3.146 -0.4538 -0.2472  2.7398
 4331SOL    HW214188   4.694   3.230   3.070 -4.0407  0.1969 -2.4121
 4332SOL     OW14189   4.380   1.582   3.424  0.2205 -0.1195  0.2189
 4332SOL    HW114190   4.327   1.589   3.344  2.1443  0.1550 -1.0844
 4332SOL    HW214191   4.416   1.669   3.437  2.0319 -0.7725 -0.1633
 4333SOL     OW14192   1.798   3.068   3.139  0.4941  0.6057  0.3463
 4333SOL    HW114193   1.783   3.004   3.070  1.5931 -0.4461  1.0526
 4333SOL    HW214194   1.754   3.147   3.108 -1.3830 -0.6262 -0.2869
 4334SOL     OW14195   7.364   5.847   4.894  0.6028  0.4636  0.3818
 4334SOL    HW114196   7.373   5.794   4.974 -1.8709 -0.1530  0.3323
 4334SOL    HW214197   7.344   5.783   4.826 -0.0688  1.2386 -0.1628
 4335SOL     OW14198   5.163   7.549   4.571 -0.0762  0.1148  0.0306
 4335SOL    HW114199   5.091   7.607   4.598 -0.7919 -1.1633  0.9405
 4335SOL    HW214200   5.242   7.593   4.603 -0.4886  1.1885 -0.3724
 4336SOL     OW14201   0.312   5.475   1.877  0.1700  0.7286  0.1447
 4336SOL    HW114202   0.357   5.560   1.878  2.5808 -0.4654  1.8051
 4336SOL    HW214203   0.361   5.421   1.938 -1.1671 -1.9619 -1.0035
 4337SOL     OW14204   7.755   8.325   6.024  0.1326 -0.3298 -0.0252
 4337SOL    HW114205   7.788   8.395   5.968 -0.4151 -1.2974 -1.6493
 4337SOL    HW214206   7.834   8.276   6.050  0.2796 -0.9614 -1.5453
 4338SOL     OW14207   3.502   0.481   6.946 -0.0769 -0.2810  0.0560
 4338SOL    HW114208   3.466   0.569   6.938  1.0196  0.1299 -0.5120
 4338SOL    HW214209   3.463   0.447   7.027  0.6207  1.2772  1.0962
 4339SOL     OW14210   4.433   6.773   6.814 -0.2463  0.4906 -0.5181
 4339SOL    HW114211   4.485   6.794   6.737 -0.9718 -0.1579 -1.2060
 4339SOL    HW214212   4.411   6.858   6.852  1.4330  0.7862 -0.0965
 4340SOL     OW14213   8.493   2.801   7.439  0.1118 -0.2019 -1.0084
 4340SOL    HW114214   8.430   2.739   7.478  0.9165 -0.2976  0.1928
 4340SOL    HW214215   8.476   2.796   7.345 -1.8719 -0.0060 -0.7102
 4341SOL     OW14216   1.072   8.320   5.860  0.4083 -0.3586  0.4176
 4341SOL    HW114217   1.034   8.306   5.773  0.7278 -0.0897  0.2314
 4341SOL    HW214218   1.001   8.298   5.921  0.2863 -0.8653  0.0983
 4342SOL     OW14219   3.025   0.738   3.493 -0.6009  0.6907 -0.3869
 4342SOL    HW114220   2.952   0.792   3.526  0.0410  0.5968  1.2559
 4342SOL    HW214221   3.103   0.790   3.509 -0.1113 -0.0785 -0.2197
 4343SOL     OW14222   0.770   5.628   6.816  0.1929  0.2160  0.4523
 4343SOL    HW114223   0.720   5.602   6.739  0.7523 -0.9892  0.4845
 4343SOL    HW214224   0.845   5.677   6.781  0.6765 -0.6991  0.1895
 4344SOL     OW14225   8.478   5.666   1.916 -0.4729 -0.3124  0.3371
 4344SOL    HW114226   8.542   5.598   1.938  0.7615  0.8354  0.3987
 4344SOL    HW214227   8.514   5.746   1.954 -1.2801  0.6220 -0.8043
 4345SOL     OW14228   7.050   0.962   7.837 -0.4688 -0.2706 -0.2852
 4345SOL    HW114229   7.103   0.908   7.895 -0.7158  2.0509  2.2722
 4345SOL    HW214230   6.963   0.921   7.839 -0.5945  0.0340  1.3936
 4346SOL     OW14231   0.565   0.449   1.865 -0.9437 -0.8588 -0.4220
 4346SOL    HW114232   0.493   0.420   1.809 -0.9091 -0.7786 -0.5086
 4346SOL    HW214233   0.522   0.503   1.932 -0.6719  1.8717 -2.2801
 4347SOL     OW14234   0.200   1.801   4.273  0.5969 -0.2228  0.1807
 4347SOL    HW114235   0.143   1.862   4.321  1.5624 -0.2425  1.4186
 4347SOL    HW214236   0.254   1.857   4.217  0.2900 -0.0862  0.0241
 4348SOL     OW14237   0.457   7.133   7.886  0.0059 -0.2323  0.2286
 4348SOL    HW114238   0.368   7.112   7.914 -0.5639  0.3854 -1.0363
 4348SOL    HW214239   0.446   7.205   7.824  1.4334  0.1422  0.3731
 4349SOL     OW14240   8.128   0.166   5.507  0.1594 -0.2574  0.1219
 4349SOL    HW114241   8.117   0.209   5.423  0.5142  0.1127  0.2630
 4349SOL    HW214242   8.197   0.102   5.493  0.4183  0.0019  0.2035
 4350SOL     OW14243   3.566   2.500   1.110  0.4581  0.1630  0.1876
 4350SOL    HW114244   3.527   2.548   1.183  1.7132  0.2579  0.8141
 4350SOL    HW214245   3.509   2.520   1.036 -1.0629 -0.2519  1.2011
 4351SOL     OW14246   2.186   8.493   2.320  0.3858 -0.7474  0.1506
 4351SOL    HW114247   2.262   8.547   2.342  0.1770 -0.8208  1.0930
 4351SOL    HW214248   2.185   8.491   2.224  0.7948  0.3522  0.1109
 4352SOL     OW14249   5.087   6.073   7.049  0.1252  0.4689  0.3345
 4352SOL    HW114250   5.020   6.043   7.111  0.1465 -1.7179 -0.6297
 4352SOL    HW214251   5.168   6.072   7.099 -0.1092  0.3083  0.7179
 4353SOL     OW14252   6.169   1.609   6.071 -0.1120  0.8064 -0.3130
 4353SOL    HW114253   6.121   1.590   5.990  0.6796 -0.5796 -0.5010
 4353SOL    HW214254   6.259   1.584   6.051 -0.1378 -0.8342  1.3978
 4354SOL     OW14255   4.754   0.045   0.120  0.0820 -0.2556 -0.4724
 4354SOL    HW114256   4.703   0.111   0.074  0.5534 -0.2210 -0.9620
 4354SOL    HW214257   4.842   0.052   0.082  0.4519 -0.3120  0.3534
 4355SOL     OW14258   5.660   5.518   2.678 -0.4783  0.2556  0.0524
 4355SOL    HW114259   5.653   5.581   2.607 -1.0037  0.7514  0.5414
 4355SOL    HW214260   5.572   5.480   2.686 -0.2095 -0.4141 -0.1271
 4356SOL     OW14261   4.287   3.922   1.228 -0.4062  0.0976  0.6626
 4356SOL    HW114262   4.356   3.959   1.284  1.3086 -0.6928 -0.8358
 4356SOL    HW214263   4.301   3.963   1.143  1.1664 -3.3392 -0.9069
 4357SOL     OW14264   6.178   6.720   5.300  0.6083  0.2244  0.5451
 4357SOL    HW114265   6.096   6.715   5.250 -0.5192  0.7500  2.2463
 4357SOL    HW214266   6.232   6.783   5.252  0.3718 -0.7308 -1.0474
 4358SOL     OW14267   2.301   3.835   2.812  0.1147  0.1534  0.0077
 4358SOL    HW114268   2.362   3.863   2.744 -0.8306  0.5335 -0.7069
 4358SOL    HW214269   2.356   3.820   2.889  1.3947 -1.6517 -1.1983
 4359SOL     OW14270   7.742   1.562   2.128  0.5790 -0.5739  0.2647
 4359SOL    HW114271   7.671   1.501   2.110  0.7638 -0.8395  0.4355
 4359SOL    HW214272   7.794   1.520   2.196 -1.0656  1.1532  2.7588
 4360SOL     OW14273   5.014   7.758   3.557  0.1070 -0.3310 -0.2478
 4360SOL    HW114274   4.935   7.813   3.554 -0.8479 -1.6163  0.4662
 4360SOL    HW214275   5.021   7.731   3.648  1.1878 -0.5320 -0.3775
 4361SOL     OW14276   3.419   7.038   1.814 -0.3675 -0.0654 -0.2735
 4361SOL    HW114277   3.501   7.038   1.765  0.1877 -0.7378  0.6176
 4361SOL    HW214278   3.378   7.122   1.795 -0.0540 -0.2230 -1.6858
 4362SOL     OW14279   6.665   2.865   8.111 -0.1301 -0.4191  0.0668
 4362SOL    HW114280   6.593   2.919   8.142  0.3325 -0.7970  1.9005
 4362SOL    HW214281   6.732   2.871   8.180  0.3017 -2.5875 -0.0790
 4363SOL     OW14282   6.120   3.469   4.313 -0.6110 -0.5851 -0.1678
 4363SOL    HW114283   6.028   3.471   4.336 -0.2503  0.5169  1.3362
 4363SOL    HW214284   6.165   3.508   4.388  0.8245  1.7730 -2.0596
 4364SOL     OW14285   2.764   2.955   3.020  0.2682 -0.2403  0.0013
 4364SOL    HW114286   2.776   3.022   3.088  0.1496  0.8720 -1.0404
 4364SOL    HW214287   2.669   2.949   3.009  0.2694 -0.7113  0.1950
 4365SOL     OW14288   4.895   0.792   4.677 -0.7665  0.3375 -0.2391
 4365SOL    HW114289   4.975   0.823   4.721 -1.8225  0.5521  1.6349
 4365SOL    HW214290   4.855   0.733   4.741 -1.9228 -0.0573 -1.3069
 4366SOL     OW14291   5.904   8.141   1.238 -0.5281  0.3116  0.1514
 4366SOL    HW114292   5.938   8.225   1.206  1.5947 -0.6454 -0.2738
 4366SOL    HW214293   5.936   8.135   1.328  1.3468 -1.0332 -0.5579
 4367SOL     OW14294   4.156   1.368   6.244 -0.1853  0.2295 -0.1194
 4367SOL    HW114295   4.202   1.380   6.327 -0.6206  1.3016 -0.0223
 4367SOL    HW214296   4.226   1.372   6.178  0.4796 -2.7216  0.2490
 4368SOL     OW14297   2.840   0.951   7.662 -0.1845 -0.1079  0.3491
 4368SOL    HW114298   2.871   0.957   7.752 -0.0932  0.7629  0.2666
 4368SOL    HW214299   2.847   1.040   7.628 -0.7492 -0.3167 -0.3417
 4369SOL     OW14300   7.779   7.324   0.702  0.0604 -0.4079 -0.0598
 4369SOL    HW114301   7.779   7.281   0.617  0.8942 -0.1322 -0.2062
 4369SOL    HW214302   7.823   7.407   0.688 -1.3045  0.4085  0.2864
 4370SOL     OW14303   3.267   4.064   4.544  0.1238 -0.5395 -0.5801
 4370SOL    HW114304   3.246   3.986   4.596 -1.0386 -0.0744 -0.3128
 4370SOL    HW214305   3.342   4.038   4.491 -1.5215 -2.5760 -2.0965
 4371SOL     OW14306   6.074   7.917   6.980 -0.3628  0.0920  0.7279
 4371SOL    HW114307   6.169   7.906   6.986 -0.0853  2.3979  1.5303
 4371SOL    HW214308   6.039   7.842   7.029  0.9645 -1.2214 -0.2178
 4372SOL     OW14309   2.211   3.451   2.051 -0.0669  0.0560  0.0871
 4372SOL    HW114310   2.226   3.364   2.088 -0.8937 -0.6967 -1.2528
 4372SOL    HW214311   2.272   3.508   2.097  1.4344 -1.4771  0.0783
 4373SOL     OW14312   3.254   0.451   3.772  0.0278  0.0063  0.0028
 4373SOL    HW114313   3.171   0.496   3.783  1.1419  1.9468  1.1775
 4373SOL    HW214314   3.318   0.507   3.817  1.7390 -2.1668  0.4904
 4374SOL     OW14315   4.355   3.617   3.703 -0.7730 -0.1469 -0.2516
 4374SOL    HW114316   4.356   3.523   3.721  1.9325  0.1593  1.7974
 4374SOL    HW214317   4.416   3.629   3.630  1.0386  0.2022  1.2477
 4375SOL     OW14318   2.698   6.351   6.319  0.4112  0.4266  0.2915
 4375SOL    HW114319   2.773   6.308   6.278 -0.0771 -0.2990  0.1528
 4375SOL    HW214320   2.708   6.334   6.413 -1.1160 -2.2338  0.0681
 4376SOL     OW14321   3.571   0.112   7.492 -0.1925  0.0726  0.2653
 4376SOL    HW114322   3.651   0.165   7.485  0.7563 -1.3292  0.1325
 4376SOL    HW214323   3.548   0.116   7.584 -1.4964  2.5732 -0.0644
 4377SOL     OW14324   4.521   0.567   3.244  0.1010  0.1332  0.0480
 4377SOL    HW114325   4.585   0.535   3.307 -0.0288  0.9455  0.6135
 4377SOL    HW214326   4.529   0.508   3.169 -0.5026 -1.5602  1.2355
 4378SOL     OW14327   1.131   8.553   2.926  0.0593 -0.6227 -0.1314
 4378SOL    HW114328   1.037   8.571   2.916  0.2474  0.3418 -0.2891
 4378SOL    HW214329   1.141   8.528   3.018  0.2976  4.1079  1.4045
 4379SOL     OW14330   4.806   1.016   7.967 -0.4575 -0.3948  0.4015
 4379SOL    HW114331   4.830   0.956   8.037 -0.4742 -0.3400  0.4531
 4379SOL    HW214332   4.719   0.986   7.939 -1.4370  0.9256  1.8758
 4380SOL     OW14333   0.193   8.426   4.982 -0.0778  0.3142 -0.0480
 4380SOL    HW114334   0.120   8.441   4.922 -0.2581  0.4799  0.2094
 4380SOL    HW214335   0.256   8.374   4.932 -0.2063  0.4940 -0.3959
 4381SOL     OW14336   0.918   1.036   8.437 -0.5719 -0.3605 -0.4845
 4381SOL    HW114337   0.999   0.985   8.428 -1.1710 -1.4005 -0.1420
 4381SOL    HW214338   0.913   1.086   8.355  0.0690 -0.8036 -0.8094
 4382SOL     OW14339   5.706   0.442   2.990  0.1068 -0.0801  0.1812
 4382SOL    HW114340   5.626   0.494   2.993  1.1650  1.6600  0.3050
 4382SOL    HW214341   5.677   0.351   2.998 -1.7778  0.5376  1.0057
 4383SOL     OW14342   7.764   4.278   0.293 -0.2470  0.1349  0.3942
 4383SOL    HW114343   7.810   4.344   0.345  0.6471 -0.5517  0.5019
 4383SOL    HW214344   7.702   4.238   0.355  0.4470 -0.3232  0.8045
 4384SOL     OW14345   8.077   3.102   0.650 -0.0465  0.3779  0.2883
 4384SOL    HW114346   8.007   3.160   0.621  0.6301  0.0835 -2.1483
 4384SOL    HW214347   8.081   3.114   0.745 -3.5437  0.2107  0.5862
 4385SOL     OW14348   0.824   8.254   3.268  0.3625 -0.1488  0.5017
 4385SOL    HW114349   0.751   8.197   3.244  0.0978  0.4973 -0.3026
 4385SOL    HW214350   0.803   8.284   3.357 -0.6519  0.4487  0.0860
 4386SOL     OW14351   1.947   2.343   2.067 -0.0708 -0.1838 -0.2306
 4386SOL    HW114352   1.854   2.340   2.047 -0.4001  2.2017  0.5460
 4386SOL    HW214353   1.972   2.434   2.051  1.8418 -0.4740  0.7589
 4387SOL     OW14354   0.370   5.250   1.325  0.3493  0.0041  0.0525
 4387SOL    HW114355   0.317   5.214   1.396 -0.7908  2.1814  0.3930
 4387SOL    HW214356   0.357   5.344   1.331 -0.2518  0.2730 -3.4153
 4388SOL     OW14357   1.028   1.610   2.057  0.7806 -0.0243 -0.3960
 4388SOL    HW114358   1.057   1.521   2.040 -0.7255 -0.5259 -0.4568
 4388SOL    HW214359   0.992   1.607   2.146 -2.0824 -0.2855 -1.4485
 4389SOL     OW14360   2.345   1.703   3.632 -0.3465 -0.2141  0.6397
 4389SOL    HW114361   2.292   1.774   3.595 -0.3418 -0.0945  0.8594
 4389SOL    HW214362   2.299   1.623   3.608  0.1139 -0.1858 -0.3695
 4390SOL     OW14363   5.256   1.129   7.452 -0.1481 -0.1089  0.3145
 4390SOL    HW114364   5.223   1.198   7.394  1.2725 -0.9341 -1.5784
 4390SOL    HW214365   5.297   1.176   7.525  1.0891  1.1028 -1.1028
 4391SOL     OW14366   8.437   5.085   1.699 -0.0708 -0.3343  0.3900
 4391SOL    HW114367   8.452   5.013   1.637 -0.7155  0.1450 -0.3444
 4391SOL    HW214368   8.510   5.078   1.760 -1.0767 -2.7417  1.4621
 4392SOL     OW14369   5.513   1.425   3.818 -0.4391  0.3879  0.6494
 4392SOL    HW114370   5.596   1.418   3.866  0.1471  0.8222 -0.2662
 4392SOL    HW214371   5.470   1.341   3.834  1.4263 -0.9999 -1.0459
 4393SOL     OW14372   4.785   0.917   4.279 -0.0329  0.1671 -0.1953
 4393SOL    HW114373   4.782   0.930   4.184 -0.2058  0.8997 -0.0996
 4393SOL    HW214374   4.873   0.883   4.295 -0.7825 -2.2897 -0.8584
 4394SOL     OW14375   4.525   4.104   0.699  0.3709 -0.2161  0.1140
 4394SOL    HW114376   4.515   4.176   0.637 -1.6769 -0.0603  0.5572
 4394SOL    HW214377   4.586   4.044   0.657  0.1168  0.5526 -1.4072
 4395SOL     OW14378   0.197   4.296   2.673 -0.2042  0.1204 -0.1545
 4395SOL    HW114379   0.193   4.344   2.590 -1.4659 -2.8289 -1.9526
 4395SOL    HW214380   0.117   4.321   2.719 -0.8005 -0.1566 -1.0145
 4396SOL     OW14381   2.223   0.173   1.106  0.0732 -0.1865 -0.1916
 4396SOL    HW114382   2.209   0.092   1.058 -0.0760  0.5143 -1.3673
 4396SOL    HW214383   2.171   0.164   1.185  0.6843 -1.5541  0.0702
 4397SOL     OW14384   3.018   7.020   5.332  0.2351 -0.2848  0.5046
 4397SOL    HW114385   3.082   7.091   5.324 -0.0751  0.0926  1.3361
 4397SOL    HW214386   3.046   6.956   5.266 -0.4561  1.3463 -1.4902
 4398SOL     OW14387   8.024   6.881   7.923  0.5100 -0.5858 -0.1386
 4398SOL    HW114388   8.057   6.970   7.915 -1.2900  0.0721 -0.8250
 4398SOL    HW214389   8.044   6.855   8.013 -1.8012  1.7804  1.2088
 4399SOL     OW14390   7.013   4.297   5.810  0.2885  0.0005 -0.2092
 4399SOL    HW114391   7.037   4.235   5.879 -0.2412 -2.1879 -1.8758
 4399SOL    HW214392   6.990   4.242   5.736 -2.1485  2.1732 -1.2097
 4400SOL     OW14393   2.344   3.336   4.617 -0.3795 -0.9248  0.0669
 4400SOL    HW114394   2.266   3.382   4.585  1.2967  0.2800 -2.6707
 4400SOL    HW214395   2.310   3.255   4.655 -3.0617  0.3253  0.5650
 4401SOL     OW14396   2.699   7.505   8.420 -0.3310 -0.1979  0.4162
 4401SOL    HW114397   2.609   7.526   8.396  0.2741  0.7957 -1.1853
 4401SOL    HW214398   2.708   7.412   8.398 -0.3856  0.2061 -1.5646
 4402SOL     OW14399   5.506   2.076   2.427 -0.0073 -0.6641  0.4601
 4402SOL    HW114400   5.587   2.034   2.399  0.0902 -0.5994  0.6461
 4402SOL    HW214401   5.531   2.129   2.503  0.0179  0.3132 -0.2172
 4403SOL     OW14402   5.723   7.615   6.606 -0.6561  0.0014 -0.3025
 4403SOL    HW114403   5.772   7.660   6.675 -1.2572 -0.3698  0.3741
 4403SOL    HW214404   5.791   7.586   6.544 -0.2023  1.3492 -0.4894
 4404SOL     OW14405   4.152   7.381   2.458  0.2354 -0.3301  0.5307
 4404SOL    HW114406   4.121   7.318   2.393  0.3333 -0.6762  0.8160
 4404SOL    HW214407   4.074   7.402   2.510 -0.0413  0.5980 -0.2151
 4405SOL     OW14408   3.869   6.278   7.983  0.2735 -0.2175  0.0376
 4405SOL    HW114409   3.856   6.371   7.998 -0.7732 -0.4098  0.3695
 4405SOL    HW214410   3.833   6.263   7.895  2.5198  0.0982 -1.0083
 4406SOL     OW14411   6.875   5.101   0.479 -0.3646  0.3543  0.2021
 4406SOL    HW114412   6.789   5.061   0.492  0.1041 -0.9913 -0.5342
 4406SOL    HW214413   6.892   5.090   0.385  0.1745  1.5378  0.1469
 4407SOL     OW14414   2.687   7.346   2.374  0.0513  0.6441  0.0510
 4407SOL    HW114415   2.707   7.440   2.379  2.5183  0.1381  3.0843
 4407SOL    HW214416   2.651   7.325   2.459  0.4276 -1.3262 -0.2369
 4408SOL     OW14417   1.043   0.066   8.339  0.4669 -0.9410  0.2812
 4408SOL    HW114418   1.020   0.020   8.258 -1.5615 -0.1461  0.3400
 4408SOL    HW214419   1.097   0.139   8.309 -2.2270  0.7921 -0.7939
 4409SOL     OW14420   4.515   5.029   1.484 -0.2625  0.5582  0.8821
 4409SOL    HW114421   4.474   4.948   1.453  0.1307  0.2520  1.1430
 4409SOL    HW214422   4.579   5.000   1.550  0.4236  1.0070  0.4353
 4410SOL     OW14423   3.050   6.678   4.668 -0.0962  0.3818 -0.3130
 4410SOL    HW114424   3.121   6.710   4.612  0.6309 -0.1023  0.3253
 4410SOL    HW214425   3.039   6.747   4.734 -1.0422  1.0146 -1.0872
 4411SOL     OW14426   3.558   5.675   4.737 -0.2702  0.0909  0.2571
 4411SOL    HW114427   3.561   5.671   4.641 -0.7116 -0.7179  0.2707
 4411SOL    HW214428   3.470   5.706   4.757 -0.3144 -0.1371  0.4132
 4412SOL     OW14429   8.281   3.040   4.495 -0.1418  0.6571 -0.6911
 4412SOL    HW114430   8.274   2.984   4.418 -0.4568  2.7645 -2.3211
 4412SOL    HW214431   8.190   3.060   4.518 -0.0486  0.0407  0.2487
 4413SOL     OW14432   0.754   7.702   3.261  0.0160 -0.2942  0.3484
 4413SOL    HW114433   0.846   7.728   3.254 -0.2494  0.3814 -0.7859
 4413SOL    HW214434   0.758   7.609   3.284  0.9613  0.2018  2.4196
 4414SOL     OW14435   2.292   4.489   2.877 -0.3752 -0.0233 -0.6549
 4414SOL    HW114436   2.258   4.432   2.808  2.5797  0.1723 -2.4671
 4414SOL    HW214437   2.383   4.505   2.851 -0.4472  3.8722  0.8323
 4415SOL     OW14438   0.049   4.866   1.843 -0.1048  0.0174 -0.0573
 4415SOL    HW114439   0.049   4.795   1.906  2.1680 -0.8714 -0.9389
 4415SOL    HW214440   0.054   4.822   1.758  0.7942  1.1889 -0.6415
 4416SOL     OW14441   7.739   5.413   0.328 -0.0992 -0.0778 -0.4339
 4416SOL    HW114442   7.768   5.394   0.417 -3.6606  0.3661  0.9609
 4416SOL    HW214443   7.707   5.329   0.295 -2.0971  0.4168  0.1310
 4417SOL     OW14444   6.561   8.262   3.855 -0.0340  0.7399 -0.2138
 4417SOL    HW114445   6.632   8.198   3.862 -0.0965  0.4871 -1.5879
 4417SOL    HW214446   6.605   8.346   3.853  0.1094  0.6940  0.6318
 4418SOL     OW14447   0.452   6.735   5.690 -0.0575  0.1570 -0.0225
 4418SOL    HW114448   0.531   6.776   5.725 -0.6635  1.3504 -0.0340
 4418SOL    HW214449   0.431   6.785   5.612 -0.5677 -0.4504 -0.2834
 4419SOL     OW14450   1.541   5.471   2.821 -0.7336  0.1786 -0.2447
 4419SOL    HW114451   1.527   5.549   2.874  0.5868 -0.1874  0.6893
 4419SOL    HW214452   1.634   5.453   2.828 -1.1162 -1.9475  0.2326
 4420SOL     OW14453   0.216   6.715   2.836  0.1719 -0.3666 -0.3046
 4420SOL    HW114454   0.229   6.622   2.855  0.3126 -0.3481 -0.3012
 4420SOL    HW214455   0.283   6.760   2.889  0.2826 -0.2839 -0.5100
 4421SOL     OW14456   4.151   3.148   3.490  0.2019  0.1441 -0.2897
 4421SOL    HW114457   4.177   3.211   3.422 -0.2196 -0.3369 -0.9134
 4421SOL    HW214458   4.172   3.062   3.452  1.5280 -0.0762  0.8778
 4422SOL     OW14459   5.662   3.731   2.170  0.2601 -0.1172 -0.0434
 4422SOL    HW114460   5.586   3.783   2.195  1.9874  2.7585 -0.2786
 4422SOL    HW214461   5.665   3.735   2.074  0.8795  0.0980 -0.0240
 4423SOL     OW14462   7.179   7.640   1.217  0.2739  0.3125  0.1381
 4423SOL    HW114463   7.137   7.619   1.300  2.2105 -0.3675  0.9828
 4423SOL    HW214464   7.195   7.556   1.175 -0.3951  0.6342 -0.8216
 4424SOL     OW14465   1.493   5.600   5.367 -0.2635  0.2863  0.6597
 4424SOL    HW114466   1.499   5.620   5.273  0.6377  0.1499  0.6853
 4424SOL    HW214467   1.435   5.524   5.370 -0.7224  0.6073  0.2612
 4425SOL     OW14468   1.896   0.015   5.446  0.3519  0.4263 -0.3390
 4425SOL    HW114469   1.903  -0.079   5.460  0.6108  0.7188  1.9155
 4425SOL    HW214470   1.905   0.026   5.352  1.3535 -1.7122 -0.5588
 4426SOL     OW14471   7.027   7.255   2.554  0.0736 -0.5395 -0.1833
 4426SOL    HW114472   6.996   7.320   2.491  1.5886 -0.9808 -1.4465
 4426SOL    HW214473   7.096   7.300   2.603  0.4841 -0.8844 -0.4315
 4427SOL     OW14474   7.090   4.745   1.250  0.0448  0.3283 -0.2976
 4427SOL    HW114475   7.122   4.672   1.304 -1.7529 -1.3118 -1.3031
 4427SOL    HW214476   7.065   4.812   1.313  1.9881  0.2373  0.6521
 4428SOL     OW14477   0.354   8.349   0.045 -0.4126 -0.7519 -0.1937
 4428SOL    HW114478   0.385   8.433   0.080 -1.9574 -0.4891  0.6501
 4428SOL    HW214479   0.325   8.370  -0.044  0.8403 -0.7927 -0.6296
 4429SOL     OW14480   4.423   5.376   3.625  0.0463  0.0196  0.1897
 4429SOL    HW114481   4.505   5.409   3.588 -0.5262 -0.3229 -1.4736
 4429SOL    HW214482   4.394   5.445   3.685  0.2306  1.3586 -1.1989
 4430SOL     OW14483   1.722   5.167   2.378 -0.5150 -0.1601  0.2175
 4430SOL    HW114484   1.801   5.221   2.382 -0.5050 -0.2029  0.6694
 4430SOL    HW214485   1.671   5.193   2.455 -0.4528 -0.8821  0.5026
 4431SOL     OW14486   5.007   3.900   1.707 -0.5063 -0.1242 -0.6385
 4431SOL    HW114487   4.971   3.884   1.620  0.0940 -0.3218 -0.8619
 4431SOL    HW214488   5.059   3.822   1.727  0.1782  0.3387 -0.5418
 4432SOL     OW14489   7.935   3.315   7.011 -0.0757 -0.6453 -0.6276
 4432SOL    HW114490   8.025   3.342   7.031  0.4315 -2.4322 -0.3171
 4432SOL    HW214491   7.882   3.393   7.031  1.3388  0.2965 -0.3759
 4433SOL     OW14492   1.496   0.250   6.808  0.0734 -0.0602 -0.0514
 4433SOL    HW114493   1.506   0.179   6.745 -1.6728 -1.0009  0.6458
 4433SOL    HW214494   1.565   0.234   6.873  1.9989  1.0203 -1.7169
 4434SOL     OW14495   5.765   6.315   1.400 -0.7041 -0.0843  0.5245
 4434SOL    HW114496   5.672   6.300   1.419 -1.0660  0.1796 -0.9049
 4434SOL    HW214497   5.807   6.232   1.422 -1.4124 -0.4855  0.4019
 4435SOL     OW14498   4.928   7.892   2.184  0.1155  0.1451  0.5366
 4435SOL    HW114499   4.852   7.881   2.240  0.0039 -0.3222  0.2970
 4435SOL    HW214500   4.933   7.811   2.133  0.4919  0.3668  0.2099
 4436SOL     OW14501   0.986   7.897   1.090  1.0760  0.3222 -0.2333
 4436SOL    HW114502   1.058   7.835   1.083  0.2553 -0.5939 -0.6726
 4436SOL    HW214503   1.014   7.958   1.159  2.0344 -0.3151 -0.0376
 4437SOL     OW14504   2.293   4.734   7.091 -0.4163  0.2267  0.2451
 4437SOL    HW114505   2.231   4.714   7.160 -1.4462  2.1682 -0.0487
 4437SOL    HW214506   2.293   4.829   7.085  2.1290  0.2754 -0.2195
 4438SOL     OW14507   4.856   1.392   5.485  0.1711 -0.1459 -0.0801
 4438SOL    HW114508   4.807   1.330   5.430 -2.0346  0.2519  1.2928
 4438SOL    HW214509   4.923   1.338   5.527 -0.0440 -1.0610 -0.8669
 4439SOL     OW14510   3.857   6.103   6.056 -0.7696  0.4058 -0.5837
 4439SOL    HW114511   3.852   6.187   6.101 -2.1948  0.7834 -1.3680
 4439SOL    HW214512   3.879   6.125   5.966 -1.7776  0.0284 -0.9425
 4440SOL     OW14513   6.078   6.217   6.828 -0.1060 -0.5584 -0.0314
 4440SOL    HW114514   6.109   6.182   6.911  0.0328 -0.0688  0.1274
 4440SOL    HW214515   6.141   6.286   6.806 -2.1130  1.8755  1.2844
 4441SOL     OW14516   0.261   0.790   1.391 -0.4457 -0.2156  0.2688
 4441SOL    HW114517   0.239   0.842   1.469  1.8888 -0.7744  1.3782
 4441SOL    HW214518   0.193   0.722   1.388 -1.5774  0.8473  0.7691
 4442SOL     OW14519   2.270   7.619   1.897  0.0299 -0.1159  0.0368
 4442SOL    HW114520   2.317   7.605   1.815  0.8462 -0.4109  0.5384
 4442SOL    HW214521   2.332   7.667   1.952 -1.3807  2.2742 -0.3401
 4443SOL     OW14522   0.631   3.101   7.966 -0.1195  0.6546  0.1526
 4443SOL    HW114523   0.689   3.160   7.918  0.5486 -0.5197 -0.5273
 4443SOL    HW214524   0.548   3.104   7.917  0.8509 -1.2928 -1.7809
 4444SOL     OW14525   4.411   0.625   6.796  0.5532 -0.3078 -0.0013
 4444SOL    HW114526   4.496   0.627   6.840 -0.3949  1.0699  1.9087
 4444SOL    HW214527   4.348   0.650   6.864 -1.3661 -0.9919 -1.4327
 4445SOL     OW14528   6.979   5.988   6.139  0.8137 -0.1838  0.0252
 4445SOL    HW114529   6.993   5.969   6.046  1.0583 -0.6956  0.1705
 4445SOL    HW214530   7.016   5.914   6.186  0.8293  0.1441  0.5450
 4446SOL     OW14531   2.466   3.449   6.702 -0.2436  0.3096 -0.4186
 4446SOL    HW114532   2.424   3.364   6.692 -1.2352  0.6925  0.4250
 4446SOL    HW214533   2.397   3.513   6.684  0.5860  0.9580 -1.4397
 4447SOL     OW14534   2.212   1.383   1.659 -0.0351  0.2287  0.5895
 4447SOL    HW114535   2.167   1.399   1.743 -0.1346 -2.7699  1.2088
 4447SOL    HW214536   2.305   1.382   1.682 -0.0139  0.1799  0.5003
 4448SOL     OW14537   7.033   6.185   7.832  0.0738  0.0768 -0.1727
 4448SOL    HW114538   7.038   6.238   7.912 -0.8315 -0.1732  0.0609
 4448SOL    HW214539   7.006   6.099   7.862 -0.9775  0.1682 -0.8114
 4449SOL     OW14540   5.308   1.993   5.717  0.1494 -0.4971 -0.2492
 4449SOL    HW114541   5.225   2.040   5.715  0.1893 -0.4419 -1.4105
 4449SOL    HW214542   5.371   2.054   5.678  0.0321 -1.7592 -2.5805
 4450SOL     OW14543   4.010   2.383   4.949 -0.6407 -0.3531  0.2473
 4450SOL    HW114544   4.087   2.427   4.986 -0.1643 -0.9185 -0.0485
 4450SOL    HW214545   4.037   2.360   4.860 -0.2684 -2.6939  0.9066
 4451SOL     OW14546   2.181   3.010   7.589 -0.2691  0.4901 -0.1181
 4451SOL    HW114547   2.193   3.043   7.500 -0.6461  3.1185  0.7267
 4451SOL    HW214548   2.090   2.978   7.590 -0.8935  2.1732 -0.2124
 4452SOL     OW14549   6.449   2.643   6.129 -0.1660  0.0213  0.2629
 4452SOL    HW114550   6.369   2.648   6.077 -0.7002 -0.1418  1.0405
 4452SOL    HW214551   6.424   2.590   6.205  0.8577 -0.5733  0.2001
 4453SOL     OW14552   0.346   1.181   4.940  0.4232 -0.4102  0.1109
 4453SOL    HW114553   0.370   1.222   4.857  0.1267 -2.0311 -0.8084
 4453SOL    HW214554   0.298   1.250   4.987  1.3937  0.8303 -0.6350
 4454SOL     OW14555   4.797   8.580   3.073  0.1331 -0.3198 -1.2135
 4454SOL    HW114556   4.806   8.545   3.162  1.3652  0.5528 -0.9685
 4454SOL    HW214557   4.870   8.541   3.024  1.8883  2.1963 -0.7920
 4455SOL     OW14558   6.999   7.809   5.051 -0.4660  0.5162  0.1695
 4455SOL    HW114559   7.064   7.832   5.117 -0.2825 -0.1517  0.2306
 4455SOL    HW214560   6.924   7.865   5.070  0.1432  1.4170 -0.0040
 4456SOL     OW14561   0.527   2.711   2.489 -0.3502 -0.2495  0.1604
 4456SOL    HW114562   0.495   2.703   2.579 -1.9789 -2.3647 -0.5337
 4456SOL    HW214563   0.592   2.781   2.493 -0.3135 -0.3434  2.9890
 4457SOL     OW14564   2.532   6.246   1.809 -0.7943 -0.2013  0.2645
 4457SOL    HW114565   2.492   6.323   1.771 -0.9334 -0.2663  0.2793
 4457SOL    HW214566   2.585   6.279   1.882 -0.0591 -0.0113 -0.3394
 4458SOL     OW14567   1.057   3.255   7.206 -0.4002 -0.1925  0.3458
 4458SOL    HW114568   1.022   3.165   7.207 -1.0342  0.0035 -1.3304
 4458SOL    HW214569   1.152   3.243   7.216 -0.5837 -0.9552  1.3909
 4459SOL     OW14570   1.427   2.762   4.506  0.2986  0.0390  0.1022
 4459SOL    HW114571   1.476   2.807   4.437  0.2647  0.6288  0.4589
 4459SOL    HW214572   1.425   2.670   4.478  2.8342 -0.2907  0.7574
 4460SOL     OW14573   6.065   6.206   3.774 -0.0884  0.2561 -0.3019
 4460SOL    HW114574   6.048   6.261   3.698 -1.1237 -0.9714 -1.0020
 4460SOL    HW214575   6.160   6.197   3.777 -0.0324  0.4276 -1.3679
 4461SOL     OW14576   1.045   8.294   0.376  0.3915  0.9995 -0.7724
 4461SOL    HW114577   1.080   8.273   0.463 -1.0517  0.6961 -0.2418
 4461SOL    HW214578   0.990   8.371   0.391 -0.1800  0.7034 -1.3435
 4462SOL     OW14579   1.577   8.507   2.222 -0.3899  0.1775  0.3376
 4462SOL    HW114580   1.541   8.434   2.272  0.1667 -1.4870 -1.5342
 4462SOL    HW214581   1.561   8.584   2.276 -0.5193 -1.3817  2.6610
 4463SOL     OW14582   4.436   1.818   3.563 -0.0240 -0.5527 -0.1106
 4463SOL    HW114583   4.383   1.810   3.643 -1.4007 -2.4853 -1.1417
 4463SOL    HW214584   4.525   1.832   3.596 -0.8499  1.0151  1.7014
 4464SOL     OW14585   6.605   5.744   3.537 -0.7889 -0.3502 -0.7220
 4464SOL    HW114586   6.522   5.766   3.495  0.2077  0.9692 -2.1138
 4464SOL    HW214587   6.672   5.769   3.473  0.7411 -0.0132  0.9207
 4465SOL     OW14588   6.781   2.248   7.682  0.4751 -0.8621  0.0978
 4465SOL    HW114589   6.717   2.234   7.611  0.4856 -5.3166  0.7025
 4465SOL    HW214590   6.855   2.291   7.639 -0.4341 -1.3184 -2.0581
 4466SOL     OW14591   2.326   1.331   0.930  0.0746  0.4103  0.4124
 4466SOL    HW114592   2.254   1.277   0.896 -0.5371  1.0152  0.7319
 4466SOL    HW214593   2.326   1.409   0.874  0.8106  0.2002  0.0985
 4467SOL     OW14594   7.097   5.405   4.432  0.2552  0.4646  0.7138
 4467SOL    HW114595   7.103   5.311   4.448 -0.8453 -0.4455 -3.0502
 4467SOL    HW214596   7.186   5.430   4.405  0.2488  0.1463  0.3829
 4468SOL     OW14597   4.621   5.499   0.779  0.1727  0.4010  0.4070
 4468SOL    HW114598   4.682   5.559   0.737  1.7543 -0.9127  0.7291
 4468SOL    HW214599   4.599   5.435   0.711 -0.4519  0.5632  0.4474
 4469SOL     OW14600   0.226   7.719   6.268 -0.4575  0.0015  0.6171
 4469SOL    HW114601   0.286   7.793   6.273 -0.6122  0.1044  0.9261
 4469SOL    HW214602   0.142   7.754   6.299 -1.3586  0.5832 -2.1081
 4470SOL     OW14603   5.547   3.434   5.899  0.4583  0.2497  0.6416
 4470SOL    HW114604   5.491   3.511   5.899  2.2870  1.7045  3.0940
 4470SOL    HW214605   5.485   3.360   5.904 -1.2694  1.5995  0.3021
 4471SOL     OW14606   0.517   1.471   1.050 -0.0481 -0.7363  0.1410
 4471SOL    HW114607   0.611   1.467   1.069 -0.2497 -1.7645  0.9804
 4471SOL    HW214608   0.511   1.531   0.975  1.2417 -0.4057  0.2722
 4472SOL     OW14609   5.598   2.779   3.140 -0.1453  0.2501 -0.0103
 4472SOL    HW114610   5.529   2.722   3.106  0.6736 -2.5856  2.6525
 4472SOL    HW214611   5.556   2.826   3.212 -0.2470  1.5662 -0.8809
 4473SOL     OW14612   6.173   5.763   1.635 -0.0505 -0.4691  0.1062
 4473SOL    HW114613   6.170   5.793   1.726 -0.7173 -1.5043  0.4401
 4473SOL    HW214614   6.187   5.668   1.641  0.9495 -0.4159 -0.8986
 4474SOL     OW14615   6.523   2.753   3.347  0.2063  0.1431  0.0438
 4474SOL    HW114616   6.614   2.773   3.371  0.6108 -0.3037 -1.0482
 4474SOL    HW214617   6.471   2.817   3.396  1.2200  1.5768 -0.6711
 4475SOL     OW14618   2.467   0.073   6.454  0.1231 -0.8957  0.3433
 4475SOL    HW114619   2.379   0.093   6.424  1.3753 -0.0278 -3.1636
 4475SOL    HW214620   2.491   0.147   6.511 -1.3146 -1.1336  1.3098
 4476SOL     OW14621   8.261   3.935   3.803  0.1193 -0.3553  0.8712
 4476SOL    HW114622   8.341   3.988   3.806  0.5239 -0.8272 -0.6500
 4476SOL    HW214623   8.291   3.847   3.780 -0.8260 -0.5467  0.3098
 4477SOL     OW14624   2.584   5.882   4.627  0.0833  0.8659 -0.3113
 4477SOL    HW114625   2.589   5.887   4.532  1.4882 -2.0808 -0.4794
 4477SOL    HW214626   2.668   5.846   4.654 -1.0863 -0.4645  1.8360
 4478SOL     OW14627   1.695   5.472   0.612 -0.2293  0.0432  0.2294
 4478SOL    HW114628   1.731   5.539   0.671  0.8007 -0.5755  0.3347
 4478SOL    HW214629   1.738   5.487   0.528 -0.4418 -0.1178  0.0881
 4479SOL     OW14630   0.150   3.870   2.980 -0.2223 -0.4327  0.3832
 4479SOL    HW114631   0.057   3.882   2.999 -0.0395 -0.0430  1.0761
 4479SOL    HW214632   0.170   3.936   2.915 -0.5304 -0.8145 -0.1023
 4480SOL     OW14633   6.185   0.403   5.496  0.2425  0.7170  0.4448
 4480SOL    HW114634   6.179   0.322   5.447 -0.7078  1.3295 -0.4885
 4480SOL    HW214635   6.228   0.379   5.578  2.4319 -0.2333 -0.8992
 4481SOL     OW14636   4.483   7.390   6.558  0.4452  0.1906  0.0582
 4481SOL    HW114637   4.510   7.450   6.489  0.7522 -2.3002 -2.1604
 4481SOL    HW214638   4.403   7.428   6.594  0.6638  1.9221 -1.1705
 4482SOL     OW14639   2.909   5.656   5.912 -0.1673  0.2928  0.7862
 4482SOL    HW114640   2.884   5.596   5.982  0.9545 -0.3301  0.6646
 4482SOL    HW214641   2.955   5.727   5.956  0.8414 -0.2689  0.6647
 4483SOL     OW14642   3.341   2.885   1.707  0.2479  0.6450  0.3169
 4483SOL    HW114643   3.246   2.898   1.701  0.4254  1.4517 -1.8009
 4483SOL    HW214644   3.378   2.961   1.661  1.9591  0.6552  1.6075
 4484SOL     OW14645   5.477   3.709   6.344 -0.2116  0.0152  0.8666
 4484SOL    HW114646   5.468   3.613   6.349  0.3577  0.0114  2.3079
 4484SOL    HW214647   5.398   3.743   6.385 -0.3646  0.1645  0.4494
 4485SOL     OW14648   4.197   8.417   6.204  0.0240 -0.4457 -0.1893
 4485SOL    HW114649   4.290   8.421   6.183 -0.1938 -0.4649 -1.1923
 4485SOL    HW214650   4.184   8.328   6.237  0.4715 -0.2423  0.5799
 4486SOL     OW14651   7.903   5.545   8.358 -0.1302 -0.1267  0.1542
 4486SOL    HW114652   7.820   5.590   8.340  1.3905  2.5786 -0.5845
 4486SOL    HW214653   7.942   5.594   8.430  2.4101  0.9946 -1.8257
 4487SOL     OW14654   3.466   1.495   0.536 -0.1174  0.1095  0.4498
 4487SOL    HW114655   3.373   1.473   0.543  0.4467 -2.4164  0.7184
 4487SOL    HW214656   3.493   1.517   0.625 -0.8146  2.8299  0.0937
 4488SOL     OW14657   6.731   3.854   1.759 -0.2111 -0.1941  0.0803
 4488SOL    HW114658   6.812   3.837   1.808  0.7485  0.5900 -1.1642
 4488SOL    HW214659   6.749   3.818   1.672 -1.3423 -0.3121 -0.1133
 4489SOL     OW14660   1.022   6.059   0.037 -0.2721  0.0069 -0.0508
 4489SOL    HW114661   1.020   5.976   0.085 -2.2567  1.3943  2.5009
 4489SOL    HW214662   1.106   6.099   0.062  0.1100 -0.6416 -0.2689
 4490SOL     OW14663   1.770   0.367   4.814 -0.4596  0.3491  0.1787
 4490SOL    HW114664   1.700   0.406   4.762 -0.3773  0.0186 -0.1860
 4490SOL    HW214665   1.728   0.342   4.896 -0.8631 -0.1966 -0.1829
 4491SOL     OW14666   5.861   3.863   2.353  0.2553  0.4198  0.0823
 4491SOL    HW114667   5.823   3.890   2.437  0.4379  0.6614  0.0879
 4491SOL    HW214668   5.793   3.810   2.312 -0.9907  2.5820 -0.8547
 4492SOL     OW14669   6.603   7.692   5.087  0.5673 -0.4555 -0.2194
 4492SOL    HW114670   6.591   7.784   5.063  0.9427  0.5466  2.9055
 4492SOL    HW214671   6.675   7.662   5.032  2.0348  1.8854  0.2410
 4493SOL     OW14672   4.553   7.762   3.906  0.6502 -0.4604  0.1946
 4493SOL    HW114673   4.462   7.755   3.878  0.1031  1.2108  1.3841
 4493SOL    HW214674   4.588   7.836   3.856  1.5448 -1.4034 -0.6309
 4494SOL     OW14675   5.390   1.001   2.593  0.2365 -0.0209 -0.1179
 4494SOL    HW114676   5.379   0.922   2.540  3.0232 -0.4354 -0.2438
 4494SOL    HW214677   5.375   1.073   2.531 -1.9279 -0.4141 -0.0960
 4495SOL     OW14678   7.080   7.528   1.441 -0.2328 -0.2800 -0.5207
 4495SOL    HW114679   6.985   7.536   1.432 -0.1125  1.0376 -0.7746
 4495SOL    HW214680   7.103   7.589   1.511  0.4095 -0.8032 -0.2575
 4496SOL     OW14681   1.520   6.877   3.895  0.2908  0.3252  0.4266
 4496SOL    HW114682   1.541   6.967   3.872 -1.1848  0.4519 -0.5926
 4496SOL    HW214683   1.577   6.857   3.969 -0.8324  2.7973  2.0819
 4497SOL     OW14684   8.573   6.482   0.740 -0.0951  0.0619 -0.4654
 4497SOL    HW114685   8.517   6.454   0.812 -1.0045 -0.5818 -1.4066
 4497SOL    HW214686   8.637   6.541   0.782  1.9610 -3.2947  1.6258
 4498SOL     OW14687   5.635   4.010   7.375 -0.1854  0.5345 -0.2108
 4498SOL    HW114688   5.602   4.095   7.402 -0.3456  0.8387 -1.3093
 4498SOL    HW214689   5.713   3.995   7.429  0.8497  2.1644 -1.1774
 4499SOL     OW14690   0.861   4.489   2.700 -0.5811  0.1027 -0.0849
 4499SOL    HW114691   0.808   4.536   2.764 -0.9155 -0.5871  0.1621
 4499SOL    HW214692   0.867   4.548   2.624 -1.2840  0.3888  0.0786
 4500SOL     OW14693   0.186   7.838   0.062 -0.2181  0.5389  1.2979
 4500SOL    HW114694   0.228   7.924   0.065 -2.4073  1.7987 -0.6894
 4500SOL    HW214695   0.138   7.837  -0.022 -0.8722 -2.3386  1.5824
 4501SOL     OW14696   1.257   8.332   4.043  0.2898  0.0332 -0.3461
 4501SOL    HW114697   1.347   8.327   4.012  0.4731  0.0286  0.1742
 4501SOL    HW214698   1.236   8.426   4.041  0.4661  0.0833 -0.0355
 4502SOL     OW14699   8.171   0.545   6.665 -0.3374 -0.0312  0.0265
 4502SOL    HW114700   8.139   0.556   6.576  0.0854 -3.5567 -0.7209
 4502SOL    HW214701   8.110   0.483   6.705  1.0020 -0.6493  1.2218
 4503SOL     OW14702   4.972   4.672   6.408  0.4536  0.3177  0.5874
 4503SOL    HW114703   4.881   4.697   6.426  0.0470 -1.8096  1.8385
 4503SOL    HW214704   4.976   4.662   6.313 -0.2477  1.6175  0.3923
 4504SOL     OW14705   3.257   2.624   7.160 -0.0112 -0.4394 -0.2115
 4504SOL    HW114706   3.193   2.576   7.106 -0.1503  0.9727 -1.3687
 4504SOL    HW214707   3.203   2.673   7.222  0.0214 -0.4300 -0.1910
 4505SOL     OW14708   1.160   6.036   7.281  0.2216 -0.1325 -0.2141
 4505SOL    HW114709   1.119   6.101   7.224  0.8398 -0.1404 -0.6847
 4505SOL    HW214710   1.137   6.064   7.370  1.6692  1.6003 -0.3214
 4506SOL     OW14711   3.026   4.363   3.417  0.0804  0.4628  0.3199
 4506SOL    HW114712   3.116   4.388   3.397 -0.2412  0.0583 -1.8994
 4506SOL    HW214713   3.032   4.271   3.445  0.3398  0.4098  0.0852
 4507SOL     OW14714   6.232   5.936   2.811  0.3796 -0.0220  0.2012
 4507SOL    HW114715   6.197   5.999   2.748  0.0846  0.7212  1.0859
 4507SOL    HW214716   6.167   5.934   2.881  1.6223  0.6578  1.4306
 4508SOL     OW14717   4.787   4.274   6.810 -0.0902  1.0982  0.5824
 4508SOL    HW114718   4.827   4.280   6.897 -0.7323 -0.9457  1.0551
 4508SOL    HW214719   4.722   4.344   6.809  0.3149  1.5007  1.5227
 4509SOL     OW14720   5.836   5.891   7.740  0.2600 -0.2361 -0.2681
 4509SOL    HW114721   5.847   5.859   7.651 -2.3252 -2.1556 -0.0295
 4509SOL    HW214722   5.745   5.923   7.743  0.4502  0.2641  1.5303
 4510SOL     OW14723   5.428   7.021   4.732  0.4974 -0.4573 -0.1166
 4510SOL    HW114724   5.390   7.088   4.675 -4.0450 -2.4527  0.1999
 4510SOL    HW214725   5.467   6.958   4.671 -1.0446 -0.7334 -0.8669
 4511SOL     OW14726   2.162   2.355   0.992  0.1708 -0.0296 -0.4952
 4511SOL    HW114727   2.227   2.292   0.962  1.9125  1.1721  0.5489
 4511SOL    HW214728   2.175   2.432   0.936 -0.5179  0.1545 -0.4197
 4512SOL     OW14729   4.612   7.349   2.596  0.1324  0.1123 -0.3609
 4512SOL    HW114730   4.526   7.391   2.589 -1.3262 -1.8718  2.9370
 4512SOL    HW214731   4.612   7.283   2.527 -0.6195  0.7122 -0.9559
 4513SOL     OW14732   2.600   0.064   6.180  0.3752  0.0850 -0.1660
 4513SOL    HW114733   2.592   0.040   6.272 -0.1448 -0.1286 -0.2588
 4513SOL    HW214734   2.553   0.147   6.173 -2.7010 -1.5565 -0.8677
 4514SOL     OW14735   2.939   2.419   4.667  0.0919 -0.0886 -0.6772
 4514SOL    HW114736   2.936   2.458   4.754 -2.1699 -3.2666  0.8785
 4514SOL    HW214737   3.019   2.366   4.667  0.4171  0.3983 -0.7897
 4515SOL     OW14738   4.639   0.465   6.369  0.1955  0.1928  0.7848
 4515SOL    HW114739   4.612   0.382   6.408 -0.1016  0.6966  1.6703
 4515SOL    HW214740   4.733   0.453   6.352 -0.0790 -0.7465 -0.2182
 4516SOL     OW14741   8.026   4.524   6.221  0.2229  0.0714 -0.3296
 4516SOL    HW114742   8.081   4.464   6.171  0.7391  0.2855 -0.0248
 4516SOL    HW214743   7.949   4.537   6.166  0.2371 -0.6345 -0.5292
 4517SOL     OW14744   3.860   0.548   7.176 -0.4701  0.1019  0.2172
 4517SOL    HW114745   3.904   0.565   7.092 -1.2272 -0.8481 -0.4020
 4517SOL    HW214746   3.930   0.518   7.234  0.3082  2.0860  0.3707
 4518SOL     OW14747   2.103   5.143   4.343  0.0734  0.6511  0.5112
 4518SOL    HW114748   2.056   5.223   4.366  1.5968  2.0114 -0.7591
 4518SOL    HW214749   2.125   5.155   4.250  1.1235 -0.8298  0.5364
 4519SOL     OW14750   0.262   8.405   0.587  0.5838  0.2063 -0.0903
 4519SOL    HW114751   0.278   8.372   0.498  2.6791 -0.2112  0.3870
 4519SOL    HW214752   0.327   8.361   0.641 -0.9279  0.1377  1.7599
 4520SOL     OW14753   0.337   5.593   6.023 -0.1823  0.0339  0.0446
 4520SOL    HW114754   0.395   5.572   6.097 -0.3928 -0.0474  0.1853
 4520SOL    HW214755   0.392   5.646   5.965 -0.3057  0.9157  0.7118
 4521SOL     OW14756   0.569   4.141   8.239  0.1688  0.0094 -0.2604
 4521SOL    HW114757   0.570   4.175   8.150  0.8399 -1.8037 -0.9884
 4521SOL    HW214758   0.481   4.106   8.251  0.0778  0.2558 -0.1911
 4522SOL     OW14759   7.321   0.022   5.897 -0.3001 -0.4286  0.2294
 4522SOL    HW114760   7.313  -0.042   5.827 -0.5259  0.8146 -0.9345
 4522SOL    HW214761   7.407   0.062   5.883 -1.1666  1.2388 -0.6427
 4523SOL     OW14762   5.361   8.384   2.396 -0.5168  0.2634 -0.5783
 4523SOL    HW114763   5.331   8.466   2.434  0.4117  0.0175  0.7638
 4523SOL    HW214764   5.441   8.407   2.349  1.2864 -0.1917  2.0033
 4524SOL     OW14765   7.673   3.800   1.168  0.0917  0.4378 -0.4521
 4524SOL    HW114766   7.708   3.797   1.257  0.9961  1.1396 -0.7691
 4524SOL    HW214767   7.694   3.714   1.131  0.8050  0.5766 -0.3778
 4525SOL     OW14768   5.455   8.386   5.913 -0.8281  0.0117 -0.3670
 4525SOL    HW114769   5.410   8.317   5.863 -1.6997  0.7370 -0.6135
 4525SOL    HW214770   5.510   8.430   5.848  0.2753 -0.8789 -0.0645
 4526SOL     OW14771   0.522   7.396   2.731  0.3890 -0.1947 -0.1249
 4526SOL    HW114772   0.593   7.346   2.772 -0.5063 -0.3533  1.2960
 4526SOL    HW214773   0.448   7.386   2.791 -0.2279  1.6916 -0.5087
 4527SOL     OW14774   0.524   7.242   0.365 -0.1079 -0.4061 -0.1607
 4527SOL    HW114775   0.477   7.191   0.299  0.7662 -0.7305 -0.5471
 4527SOL    HW214776   0.491   7.331   0.354 -0.8920 -0.6877 -0.1704
 4528SOL     OW14777   3.334   3.595   4.491 -0.5534  0.2073 -0.2685
 4528SOL    HW114778   3.312   3.686   4.513  1.1262  0.5522  0.1095
 4528SOL    HW214779   3.379   3.601   4.407 -1.2747 -0.4053 -0.7102
 4529SOL     OW14780   2.053   5.571   3.389 -0.0818 -0.1888  0.2127
 4529SOL    HW114781   2.127   5.524   3.351 -1.1341 -0.5493 -1.5178
 4529SOL    HW214782   2.084   5.661   3.400  2.2734 -1.2355  4.4033
 4530SOL     OW14783   7.973   3.721   4.071 -0.3711  0.3301 -0.0624
 4530SOL    HW114784   8.000   3.661   4.001  2.6204  1.2964  0.1241
 4530SOL    HW214785   7.987   3.808   4.033  0.1301  0.8673  1.3001
 4531SOL     OW14786   3.953   1.539   5.185  0.2567  0.0653 -0.5240
 4531SOL    HW114787   3.945   1.590   5.105  0.5538 -0.2414 -0.7554
 4531SOL    HW214788   3.868   1.497   5.196  0.8396 -1.6078 -1.8760
 4532SOL     OW14789   8.536   5.732   3.020 -0.2453  0.8494  0.3094
 4532SOL    HW114790   8.532   5.719   2.926  3.2228 -2.4599  0.3625
 4532SOL    HW214791   8.457   5.691   3.054 -0.7083  0.5662 -1.0703
 4533SOL     OW14792   2.858   5.523   8.216 -0.3099  0.4569 -0.2828
 4533SOL    HW114793   2.923   5.488   8.155  0.9583  1.3489  0.5139
 4533SOL    HW214794   2.800   5.449   8.234  0.7047 -0.4753 -0.7195
 4534SOL     OW14795   5.902   4.064   7.866  0.3516  0.3447  0.2552
 4534SOL    HW114796   5.967   4.085   7.799  1.3950  1.8942  1.6670
 4534SOL    HW214797   5.953   4.051   7.946 -0.8880 -1.0867  0.8585
 4535SOL     OW14798   5.648   2.061   2.148  0.3723 -0.3098  0.2429
 4535SOL    HW114799   5.677   2.031   2.234 -0.3693  0.7766  0.9007
 4535SOL    HW214800   5.664   1.987   2.090 -0.2917 -1.5353  1.5503
 4536SOL     OW14801   2.313   1.502   5.174  0.2274  0.0126  0.1709
 4536SOL    HW114802   2.300   1.518   5.080  4.3422  2.9642 -0.1688
 4536SOL    HW214803   2.376   1.430   5.177  0.4776  0.2480  0.6301
 4537SOL     OW14804   1.123   6.190   4.416 -0.3188  0.0701  0.1000
 4537SOL    HW114805   1.152   6.201   4.325  2.2193  0.4016  0.8855
 4537SOL    HW214806   1.094   6.099   4.420  0.3769 -0.2244 -0.8494
 4538SOL     OW14807   3.469   7.595   6.210 -0.5396  0.0306 -0.0556
 4538SOL    HW114808   3.517   7.674   6.185 -1.6568  0.6290 -0.3816
 4538SOL    HW214809   3.431   7.616   6.295  1.7146 -1.3234  1.3892
 4539SOL     OW14810   1.156   0.425   5.803 -0.4640  0.1810  0.1903
 4539SOL    HW114811   1.092   0.359   5.829  0.6952 -0.5660  1.2650
 4539SOL    HW214812   1.109   0.482   5.742 -2.2506 -0.1563  1.1802
 4540SOL     OW14813   5.101   4.258   0.785 -0.5060  0.3914 -0.4136
 4540SOL    HW114814   5.184   4.247   0.737 -0.6849 -0.2377 -0.5961
 4540SOL    HW214815   5.042   4.298   0.722 -1.0500 -1.3764 -1.0963
 4541SOL     OW14816   0.966   1.734   1.288 -0.0214  0.6787  0.0806
 4541SOL    HW114817   0.883   1.762   1.250 -0.7123  0.2008  1.2015
 4541SOL    HW214818   0.994   1.809   1.341  0.4229  0.9468 -0.5151
 4542SOL     OW14819   1.550   4.225   0.384 -0.3889  0.1187  0.3298
 4542SOL    HW114820   1.566   4.131   0.393  1.7573  0.3837 -0.1957
 4542SOL    HW214821   1.634   4.266   0.403 -0.5114  1.7657 -2.1806
 4543SOL     OW14822   1.801   6.604   5.066  0.3681 -0.4472  0.0291
 4543SOL    HW114823   1.844   6.525   5.099  1.0359 -0.7525 -1.4952
 4543SOL    HW214824   1.720   6.572   5.025 -0.4470 -0.0743  1.3022
 4544SOL     OW14825   2.778   6.987   4.798 -0.3974  0.7375  0.7734
 4544SOL    HW114826   2.714   7.006   4.730 -1.5455  0.2455  1.6857
 4544SOL    HW214827   2.804   7.073   4.831  0.4300  1.0043 -0.4723
 4545SOL     OW14828   0.954   1.873   7.869 -0.0277 -0.0174 -0.2858
 4545SOL    HW114829   1.024   1.813   7.894 -1.4277 -0.9949  1.5700
 4545SOL    HW214830   0.922   1.840   7.785 -0.1781 -1.3733  0.2787
 4546SOL     OW14831   3.525   5.585   1.952  0.3468 -0.1130  0.1785
 4546SOL    HW114832   3.557   5.497   1.970  0.5209  0.0926  0.9099
 4546SOL    HW214833   3.600   5.641   1.969  0.9570  0.0030 -2.5571
 4547SOL     OW14834   1.222   4.202   4.041  0.3944  0.5770  0.3438
 4547SOL    HW114835   1.129   4.186   4.056 -0.2530  3.2029 -0.3863
 4547SOL    HW214836   1.255   4.119   4.003 -1.0364 -1.2075  2.7392
 4548SOL     OW14837   7.776   6.005   7.019  0.5150  0.0285 -0.1701
 4548SOL    HW114838   7.726   6.035   7.095 -0.9556 -0.6179 -0.8552
 4548SOL    HW214839   7.797   6.086   6.971  0.1998  0.3187  0.1729
 4549SOL     OW14840   6.600   5.511   0.421  0.4256  0.5372  0.3292
 4549SOL    HW114841   6.690   5.497   0.390 -0.0561 -0.8390 -0.5359
 4549SOL    HW214842   6.610   5.525   0.515  1.4836 -0.4524  0.3867
 4550SOL     OW14843   4.799   0.821   1.992  0.0786  0.4300 -0.3586
 4550SOL    HW114844   4.826   0.798   1.903 -1.0372 -1.4574 -0.2514
 4550SOL    HW214845   4.708   0.790   1.999 -0.0840  1.1462  1.2279
 4551SOL     OW14846   6.097   5.202   7.661 -0.6220 -0.1809 -0.6566
 4551SOL    HW114847   6.150   5.222   7.738 -0.9666  0.4323 -0.5790
 4551SOL    HW214848   6.007   5.216   7.689 -0.8100 -0.8738 -0.8987
 4552SOL     OW14849   1.869   7.676   5.455 -0.7570  0.5586  0.5516
 4552SOL    HW114850   1.817   7.665   5.535 -1.6604  1.1284  0.0578
 4552SOL    HW214851   1.914   7.760   5.467 -0.4846  0.3987  0.6733
 4553SOL     OW14852   1.193   0.991   2.197  0.6388 -0.2729  0.0709
 4553SOL    HW114853   1.121   1.023   2.143 -0.3665 -0.8812  0.9963
 4553SOL    HW214854   1.225   0.914   2.150  0.2496 -0.3777 -0.0305
 4554SOL     OW14855   8.495   5.760   2.320  0.0753 -0.6363  0.1640
 4554SOL    HW114856   8.567   5.699   2.304  0.5883  0.0094 -0.0189
 4554SOL    HW214857   8.476   5.798   2.234  0.2564  0.0028  0.4034
 4555SOL     OW14858   6.055   4.223   4.720 -0.4881 -0.2058 -0.3685
 4555SOL    HW114859   6.064   4.260   4.809 -0.4066 -0.9349 -0.0691
 4555SOL    HW214860   6.068   4.299   4.662  2.6152 -0.1794  0.1434
 4556SOL     OW14861   7.637   4.870   6.490  0.1684  0.0857 -0.4716
 4556SOL    HW114862   7.680   4.877   6.404 -0.3248  0.8472 -0.6679
 4556SOL    HW214863   7.689   4.927   6.547  0.8976 -0.9358 -0.0809
 4557SOL     OW14864   6.223   7.404   1.524 -0.2945  0.1416 -0.2286
 4557SOL    HW114865   6.163   7.478   1.518  0.5145  0.9013  0.6832
 4557SOL    HW214866   6.299   7.432   1.472 -0.2587 -0.3404 -0.4393
 4558SOL     OW14867   5.205   0.415   8.513  0.4246 -0.3838 -0.1920
 4558SOL    HW114868   5.286   0.369   8.535  0.1569  0.3695  2.9548
 4558SOL    HW214869   5.146   0.395   8.586 -1.0801  1.6833 -0.7430
 4559SOL     OW14870   7.704   6.357   0.483 -0.2334 -0.7927 -0.3581
 4559SOL    HW114871   7.646   6.366   0.407  1.1739  1.0839 -1.2875
 4559SOL    HW214872   7.779   6.308   0.450 -1.1189 -3.0463  0.7908
 4560SOL     OW14873   7.379   1.529   4.266  0.0339  0.1791 -0.2462
 4560SOL    HW114874   7.378   1.455   4.206  0.6801 -0.1797  0.1714
 4560SOL    HW214875   7.360   1.605   4.210  0.2647 -0.1886 -0.8390
 4561SOL     OW14876   7.443   7.170   0.942 -0.1842 -0.0416  0.3906
 4561SOL    HW114877   7.496   7.093   0.958  2.6020  1.7635  0.4488
 4561SOL    HW214878   7.373   7.166   1.008  2.3799 -0.3575  3.3007
 4562SOL     OW14879   1.215   6.520   5.929  0.1964 -0.7661 -0.5985
 4562SOL    HW114880   1.129   6.537   5.967  0.0886 -0.3294 -1.0388
 4562SOL    HW214881   1.263   6.475   5.999  0.2947  0.8084  0.4012
 4563SOL     OW14882   1.488   3.613   2.508  0.5073 -0.0520  0.5782
 4563SOL    HW114883   1.396   3.639   2.510  0.4465 -0.2805  0.7577
 4563SOL    HW214884   1.534   3.683   2.556  0.6345  0.8698 -0.8110
 4564SOL     OW14885   0.545   1.191   3.087  0.4593 -0.1831  0.1558
 4564SOL    HW114886   0.484   1.254   3.049  2.1765  1.2954 -0.2903
 4564SOL    HW214887   0.533   1.112   3.034 -0.3742  0.3900 -0.5373
 4565SOL     OW14888   2.380   4.337   0.070  0.0396 -0.6836 -0.1030
 4565SOL    HW114889   2.457   4.291   0.104  0.3256 -1.2026 -1.4183
 4565SOL    HW214890   2.363   4.405   0.135  0.4474 -1.7635  1.1822
 4566SOL     OW14891   6.525   2.989   4.649  0.2374 -0.3507 -0.5312
 4566SOL    HW114892   6.536   2.987   4.554 -0.8466 -1.6660 -0.6602
 4566SOL    HW214893   6.444   3.038   4.664  0.7877  0.4858 -0.2284
 4567SOL     OW14894   5.228   3.438   1.729 -0.2122  0.6146 -0.3739
 4567SOL    HW114895   5.184   3.430   1.814  2.3702 -0.4926  0.9617
 4567SOL    HW214896   5.311   3.481   1.749  1.1009 -0.9703 -2.0532
 4568SOL     OW14897   0.865   2.782   4.679  1.2401  0.1290 -0.0858
 4568SOL    HW114898   0.885   2.841   4.752  0.1829  1.1670 -0.6020
 4568SOL    HW214899   0.830   2.840   4.611 -3.4649 -1.3565  0.6710
 4569SOL     OW14900   4.430   5.271   6.137  0.5485  0.2979  0.0199
 4569SOL    HW114901   4.447   5.317   6.219 -0.5602 -0.6206  0.8028
 4569SOL    HW214902   4.492   5.197   6.138  1.0152  0.6817 -0.3147
 4570SOL     OW14903   2.716   7.958   6.923 -0.3845 -0.6647  0.0844
 4570SOL    HW114904   2.661   7.880   6.917 -1.1736 -0.0250 -1.4162
 4570SOL    HW214905   2.657   8.027   6.955  0.3063 -0.6401  1.4003
 4571SOL     OW14906   4.650   3.584   1.110 -0.3095 -0.1101  0.0979
 4571SOL    HW114907   4.562   3.608   1.139 -0.4301 -0.3867 -0.0308
 4571SOL    HW214908   4.644   3.490   1.090  0.1509 -0.2519  0.5990
 4572SOL     OW14909   5.010   2.893   6.376  0.4109 -0.0619  0.0379
 4572SOL    HW114910   5.019   2.970   6.432  2.0785 -0.5436  0.4838
 4572SOL    HW214911   4.997   2.821   6.438 -1.1067 -0.1753 -0.3724
 4573SOL     OW14912   2.783   5.941   6.234  0.0254  0.4889  0.0182
 4573SOL    HW114913   2.738   5.970   6.155  0.7060  0.0522 -0.5424
 4573SOL    HW214914   2.870   5.913   6.204  0.1685 -0.0237  0.8610
 4574SOL     OW14915   1.551   5.249   4.185  0.4238 -0.3232  0.1438
 4574SOL    HW114916   1.592   5.241   4.271 -2.6298 -2.6538  1.5636
 4574SOL    HW214917   1.459   5.229   4.200 -0.2639 -0.7855 -3.6965
 4575SOL     OW14918   5.664   0.780   0.058 -0.3375  0.5012 -0.5609
 4575SOL    HW114919   5.755   0.802   0.038 -0.4131  1.1638 -0.1848
 4575SOL    HW214920   5.652   0.809   0.148 -0.9665  0.5507 -0.6585
 4576SOL     OW14921   8.147   3.435   2.451 -0.7278 -0.0662  0.2416
 4576SOL    HW114922   8.139   3.423   2.546  1.0578  0.9646  0.5768
 4576SOL    HW214923   8.187   3.521   2.441 -0.2200 -0.4522 -1.4222
 4577SOL     OW14924   7.794   7.729   5.592  0.2063  0.0517  0.2903
 4577SOL    HW114925   7.866   7.665   5.591  0.3595  0.2246 -0.0103
 4577SOL    HW214926   7.804   7.775   5.675  0.1479 -0.2580  0.4714
 4578SOL     OW14927   8.276   6.998   4.714  0.1193 -0.0204 -0.4091
 4578SOL    HW114928   8.336   6.989   4.640 -1.2623  1.2195 -1.7720
 4578SOL    HW214929   8.189   6.995   4.674 -0.6864  0.0888  1.2650
 4579SOL     OW14930   3.013   1.049   5.229  0.5339  0.0316  0.1321
 4579SOL    HW114931   3.080   1.078   5.166  0.4599  1.3214  0.6112
 4579SOL    HW214932   2.962   1.128   5.247  1.8188  0.2616  3.3914
 4580SOL     OW14933   0.012   5.358   3.301 -0.1140  0.4727  0.3074
 4580SOL    HW114934  -0.018   5.439   3.343 -0.3018  0.5582  0.0187
 4580SOL    HW214935   0.107   5.360   3.310 -0.1492  0.4964  0.7099
 4581SOL     OW14936   7.519   1.801   6.015 -0.0560 -0.1593 -0.0178
 4581SOL    HW114937   7.511   1.763   5.928 -3.2423  2.8317 -1.2895
 4581SOL    HW214938   7.599   1.854   6.011  0.4668 -0.9861 -0.6769
 4582SOL     OW14939   5.374   5.313   3.600 -0.0601 -0.0958 -0.7171
 4582SOL    HW114940   5.304   5.257   3.635 -0.7137  0.9657 -0.2707
 4582SOL    HW214941   5.450   5.256   3.596 -0.9076 -1.2492 -1.0748
 4583SOL     OW14942   5.631   3.973   5.242  0.3278 -0.1219 -0.0248
 4583SOL    HW114943   5.608   4.024   5.320 -0.7579  0.8551 -0.9555
 4583SOL    HW214944   5.582   4.013   5.171 -0.0974 -2.1054 -0.9284
 4584SOL     OW14945   1.559   3.257   8.135  0.0728  0.2933  0.2930
 4584SOL    HW114946   1.609   3.212   8.202 -0.2104 -2.1319 -1.0063
 4584SOL    HW214947   1.624   3.282   8.069 -0.0038  0.1638  0.1680
 4585SOL     OW14948   5.605   0.438   6.065 -0.0020 -0.1003 -0.2212
 4585SOL    HW114949   5.520   0.446   6.020  1.1317 -2.0683 -3.0409
 4585SOL    HW214950   5.630   0.527   6.086 -1.9893  0.6748 -0.8829
 4586SOL     OW14951   3.933   7.095   5.644 -0.0693 -0.4597 -0.0301
 4586SOL    HW114952   3.887   7.173   5.674  1.0142  0.2096 -0.0465
 4586SOL    HW214953   4.006   7.086   5.704 -0.3082 -1.6029  0.0996
 4587SOL     OW14954   1.874   7.597   2.737 -0.3077  0.3460  0.3494
 4587SOL    HW114955   1.920   7.612   2.654  0.8267 -0.0777  0.8844
 4587SOL    HW214956   1.864   7.502   2.743 -1.6003  0.4505  0.0722
 4588SOL     OW14957   6.629   4.445   1.054 -0.7643  0.6546 -0.7244
 4588SOL    HW114958   6.615   4.379   0.986  0.6387  0.5518 -0.9519
 4588SOL    HW214959   6.594   4.406   1.134 -1.1825  0.2021 -1.1244
 4589SOL     OW14960   6.447   0.405   2.489  0.5989 -0.7571 -0.6101
 4589SOL    HW114961   6.425   0.330   2.544  0.9393 -0.8915 -0.6518
 4589SOL    HW214962   6.520   0.447   2.534 -0.3368  0.2398  0.0295
 4590SOL     OW14963   1.551   5.777   4.092 -0.0159 -0.1195  0.3005
 4590SOL    HW114964   1.515   5.698   4.132 -1.3945  0.2734 -0.0747
 4590SOL    HW214965   1.546   5.761   3.998  0.0614  0.2566  0.2296
 4591SOL     OW14966   2.890   6.083   0.698 -0.0333  0.1801 -0.0851
 4591SOL    HW114967   2.826   6.017   0.671  0.0758 -0.1174  0.3754
 4591SOL    HW214968   2.968   6.032   0.721  1.6752  0.6660 -3.9503
 4592SOL     OW14969   0.677   4.558   3.346  0.4262 -0.0878 -0.1145
 4592SOL    HW114970   0.708   4.487   3.402  1.3993  0.1429 -0.3517
 4592SOL    HW214971   0.640   4.514   3.269 -3.5484 -0.6014  1.8182
 4593SOL     OW14972   3.893   2.569   8.527  0.0354 -0.3990  0.0808
 4593SOL    HW114973   3.928   2.640   8.473 -0.4085 -1.5474 -1.7957
 4593SOL    HW214974   3.955   2.497   8.514  0.7355 -0.2877  2.3217
 4594SOL     OW14975   0.282   3.260   4.723 -0.0132 -0.0110 -0.0115
 4594SOL    HW114976   0.313   3.347   4.751  0.2412 -0.7380  2.1307
 4594SOL    HW214977   0.350   3.200   4.753 -1.1078 -1.1312  0.2985
 4595SOL     OW14978   0.707   8.252   7.297 -0.2810 -0.2046  0.0873
 4595SOL    HW114979   0.655   8.332   7.289  0.5772  0.2330 -1.4641
 4595SOL    HW214980   0.646   8.187   7.330 -1.5312  0.5540 -0.6692
 4596SOL     OW14981   7.723   6.540   2.317 -0.2243 -0.6339 -0.0349
 4596SOL    HW114982   7.719   6.479   2.244 -2.4562 -1.0845  0.3784
 4596SOL    HW214983   7.687   6.491   2.391 -1.3080  0.8939  0.5048
 4597SOL     OW14984   7.211   7.167   8.404 -0.7431  0.2972  0.4114
 4597SOL    HW114985   7.297   7.176   8.446 -0.2716 -1.1034 -0.2021
 4597SOL    HW214986   7.230   7.163   8.311 -1.5464  0.6108  0.2232
 4598SOL     OW14987   3.356   5.623   7.616 -0.1936  0.2455 -0.0134
 4598SOL    HW114988   3.375   5.544   7.566  0.9181  0.8319 -0.5723
 4598SOL    HW214989   3.267   5.611   7.647 -0.7248 -0.4073 -1.6747
 4599SOL     OW14990   4.594   3.185   6.194 -0.3075 -0.2060 -0.3322
 4599SOL    HW114991   4.571   3.207   6.284 -0.0283  0.6347 -0.4606
 4599SOL    HW214992   4.686   3.161   6.198  0.2026  1.5978 -0.6734
 4600SOL     OW14993   8.342   0.290   3.074  0.4398 -0.6400  0.1458
 4600SOL    HW114994   8.305   0.343   3.003 -0.4535  0.6674  1.5284
 4600SOL    HW214995   8.388   0.219   3.029 -0.7163 -0.2848 -1.7243
 4601SOL     OW14996   2.652   4.997   8.219  0.0630 -0.1334  0.0368
 4601SOL    HW114997   2.560   4.998   8.194  0.3002  0.0870 -0.9013
 4601SOL    HW214998   2.693   4.940   8.154  0.2865 -1.8997  1.6502
 4602SOL     OW14999   3.675   2.766   8.172 -0.1405  0.2809 -0.0321
 4602SOL    HW115000   3.768   2.773   8.148 -0.1245  0.3641  0.0567
 4602SOL    HW215001   3.663   2.673   8.193 -0.0621  0.2834  0.0233
 4603SOL     OW15002   4.186   6.693   0.714  0.0592  0.4039  0.6719
 4603SOL    HW115003   4.161   6.670   0.804 -0.8175  0.1383  0.3726
 4603SOL    HW215004   4.120   6.650   0.659  0.5762  0.5767 -0.1000
 4604SOL     OW15005   4.750   7.792   1.251  0.4523 -0.0783 -0.1080
 4604SOL    HW115006   4.699   7.873   1.252 -0.3826 -0.5858 -0.2972
 4604SOL    HW215007   4.805   7.796   1.329  2.7402  2.1037 -1.7143
 4605SOL     OW15008   5.513   3.728   7.812 -0.1855  0.4361  0.0318
 4605SOL    HW115009   5.593   3.770   7.778 -0.1479  0.4195  0.0980
 4605SOL    HW215010   5.523   3.636   7.790  0.2654  0.2696  0.8862
 4606SOL     OW15011   3.210   0.769   4.618  0.2126 -0.2210  0.6840
 4606SOL    HW115012   3.166   0.759   4.534  0.7707 -2.8994  0.6137
 4606SOL    HW215013   3.159   0.715   4.678  1.8047 -1.1917  1.2172
 4607SOL     OW15014   1.468   4.841   5.937  0.2489  0.3628  0.1387
 4607SOL    HW115015   1.404   4.777   5.906  0.7100 -0.0157 -0.0416
 4607SOL    HW215016   1.431   4.874   6.018  0.1261 -0.3211  0.3684
 4608SOL     OW15017   1.655   4.540   5.631  0.3257  0.0652  0.3126
 4608SOL    HW115018   1.715   4.599   5.585 -0.1622 -0.7079 -1.3800
 4608SOL    HW215019   1.711   4.471   5.666  0.6239  0.2709  0.2431
 4609SOL     OW15020   3.634   1.024   7.037  0.4831  0.7170  0.1010
 4609SOL    HW115021   3.671   1.112   7.027 -0.1073  1.3399  2.6126
 4609SOL    HW215022   3.563   1.035   7.100 -0.0200 -1.4733 -0.0114
 4610SOL     OW15023   1.705   7.633   0.160 -0.1542  0.0118 -0.1067
 4610SOL    HW115024   1.780   7.638   0.100 -0.0112 -3.2263 -0.3705
 4610SOL    HW215025   1.630   7.617   0.102 -0.3282 -1.1018  0.4059
 4611SOL     OW15026   1.126   3.513   0.727 -0.0799  0.1644  0.3868
 4611SOL    HW115027   1.137   3.469   0.811 -0.6349  0.3777  0.5809
 4611SOL    HW215028   1.120   3.443   0.663  0.0122 -0.0129  0.5725
 4612SOL     OW15029   5.746   2.902   0.140 -0.2204 -0.6646  0.1267
 4612SOL    HW115030   5.828   2.909   0.190 -0.2961  1.4423  0.0497
 4612SOL    HW215031   5.677   2.899   0.207 -0.3048  1.9200  0.2831
 4613SOL     OW15032   0.023   7.185   6.923  0.2894  0.0915 -0.2099
 4613SOL    HW115033   0.035   7.125   6.849 -0.2811  0.4841 -0.6233
 4613SOL    HW215034  -0.071   7.203   6.925 -0.1099 -1.7389  2.0599
 4614SOL     OW15035   3.781   0.893   5.339  0.2463  0.3265  0.9313
 4614SOL    HW115036   3.868   0.881   5.302 -0.1824  0.0613 -0.0379
 4614SOL    HW215037   3.780   0.983   5.371 -0.0419  1.3351 -1.6681
 4615SOL     OW15038   5.001   3.888   2.390 -0.2117 -0.5100 -0.4394
 4615SOL    HW115039   4.957   3.934   2.318 -0.6203  1.8660  1.2109
 4615SOL    HW215040   4.961   3.923   2.469  1.2638 -1.9339  1.0266
 4616SOL     OW15041   7.924   4.738   5.054 -0.5234 -0.3048  0.2952
 4616SOL    HW115042   7.866   4.781   5.118 -1.3177 -0.7162 -0.1272
 4616SOL    HW215043   8.005   4.788   5.059 -1.5826  1.6331 -0.5818
 4617SOL     OW15044   6.003   7.118   3.189 -0.1128  0.1033 -0.0028
 4617SOL    HW115045   6.084   7.112   3.240  0.4427 -1.1458 -0.9755
 4617SOL    HW215046   5.963   7.200   3.218  0.7232 -0.0147  1.6130
 4618SOL     OW15047   4.507   1.136   4.543  0.1661  0.3119 -0.3357
 4618SOL    HW115048   4.583   1.188   4.517  0.5860  1.3265  2.5682
 4618SOL    HW215049   4.541   1.047   4.552  0.5149  0.3728 -0.9906
 4619SOL     OW15050   1.483   2.439   1.036 -0.1186 -0.2864  0.5521
 4619SOL    HW115051   1.574   2.435   1.006 -0.7222  0.7029 -1.5857
 4619SOL    HW215052   1.434   2.386   0.973 -1.0682 -0.5758  1.5026
 4620SOL     OW15053   6.402   1.932   4.957 -0.5524  0.2877  0.0271
 4620SOL    HW115054   6.363   1.978   5.031 -0.3418  0.5523 -0.0265
 4620SOL    HW215055   6.445   2.000   4.906  0.1588 -0.0216  0.1944
 4621SOL     OW15056   0.154   5.339   4.687 -0.0186 -0.0552 -0.5533
 4621SOL    HW115057   0.184   5.412   4.741 -0.3966 -1.0177  1.0288
 4621SOL    HW215058   0.074   5.309   4.729  1.3895 -2.9187  0.3479
 4622SOL     OW15059   3.411   7.454   5.147 -0.1382  0.2920  0.2296
 4622SOL    HW115060   3.361   7.378   5.177  3.0844 -1.4072  1.7988
 4622SOL    HW215061   3.353   7.528   5.164 -1.6764 -1.3817  3.2033
 4623SOL     OW15062   5.276   0.793   2.739 -0.3630 -0.2496  0.8061
 4623SOL    HW115063   5.293   0.820   2.829  0.3143 -0.8501  0.8756
 4623SOL    HW215064   5.301   0.869   2.686  0.9891 -0.4990  1.0284
 4624SOL     OW15065   3.731   5.372   5.879  0.0805  0.2462 -0.4567
 4624SOL    HW115066   3.759   5.460   5.905 -0.1662 -0.3082  1.8814
 4624SOL    HW215067   3.745   5.318   5.957  0.6508 -1.9107 -1.9783
 4625SOL     OW15068   2.179   7.921   1.498  0.3172 -0.4797  0.1853
 4625SOL    HW115069   2.264   7.964   1.486 -0.7426  1.3722 -1.3032
 4625SOL    HW215070   2.180   7.890   1.589  2.3045  0.1074  0.4069
 4626SOL     OW15071   1.706   8.141   8.322 -0.5383 -0.2367  0.3952
 4626SOL    HW115072   1.659   8.142   8.238  0.2546  0.1324 -0.0647
 4626SOL    HW215073   1.646   8.181   8.384  0.1453  2.8693 -0.7638
 4627SOL     OW15074   5.324   8.460   0.235 -0.3005  0.0998  0.0060
 4627SOL    HW115075   5.362   8.494   0.316 -1.1017  0.6646  0.1596
 4627SOL    HW215076   5.382   8.388   0.209  0.0025 -0.0516  1.0536
 4628SOL     OW15077   0.094   4.236   7.462  0.0693 -0.2150 -0.2811
 4628SOL    HW115078   0.008   4.212   7.496  0.2420  0.6975  0.8586
 4628SOL    HW215079   0.080   4.320   7.418  0.6013  0.6022  1.0544
 4629SOL     OW15080   7.044   2.953   1.629  0.3591 -1.2126 -0.8962
 4629SOL    HW115081   7.032   2.984   1.539  0.8174 -0.9165 -0.8597
 4629SOL    HW215082   7.011   3.025   1.683  0.6092 -1.1542 -0.8213
 4630SOL     OW15083   1.627   0.217   4.990  0.1158 -0.4881  0.1974
 4630SOL    HW115084   1.554   0.218   4.927 -0.1686  0.2882  0.5302
 4630SOL    HW215085   1.683   0.145   4.960 -0.6936 -0.9859 -0.1665
 4631SOL     OW15086   2.686   2.709   6.306  0.7129 -0.2438 -0.0014
 4631SOL    HW115087   2.761   2.754   6.345  1.0169  0.1761 -1.0470
 4631SOL    HW215088   2.610   2.756   6.341  0.8687 -1.0965  1.6017
 4632SOL     OW15089   4.507   1.627   2.659 -0.2571  0.1302 -0.3196
 4632SOL    HW115090   4.573   1.695   2.672  0.3237  0.2749 -3.2952
 4632SOL    HW215091   4.545   1.548   2.697  1.6007  0.2610 -1.7873
 4633SOL     OW15092   5.927   1.368   4.487 -0.0823  0.1338 -0.0635
 4633SOL    HW115093   5.844   1.368   4.535 -0.0597  2.2370  0.0799
 4633SOL    HW215094   5.906   1.327   4.402 -1.1148  0.1165  0.1890
 4634SOL     OW15095   8.127   1.933   1.855  0.1384 -0.3120 -0.2408
 4634SOL    HW115096   8.103   2.006   1.798  1.1070 -0.7252 -1.1889
 4634SOL    HW215097   8.055   1.871   1.846 -0.2608  0.1275 -0.1191
 4635SOL     OW15098   6.174   4.059   8.588  0.0300 -0.1056  0.2569
 4635SOL    HW115099   6.114   4.002   8.636 -0.5290 -1.4693 -1.9206
 4635SOL    HW215100   6.252   4.006   8.573  1.2235  1.1294  1.6835
 4636SOL     OW15101   5.140   2.584   3.969  0.1019 -0.5767 -0.2572
 4636SOL    HW115102   5.137   2.679   3.970  1.5924 -0.5149 -0.7613
 4636SOL    HW215103   5.093   2.558   4.049 -0.3306  0.5569 -0.1302
 4637SOL     OW15104   2.176   7.825   5.251 -0.6239  0.1458  0.1214
 4637SOL    HW115105   2.099   7.841   5.196  0.0168  0.4318 -0.7138
 4637SOL    HW215106   2.179   7.900   5.310 -0.5478  0.5372 -0.3677
 4638SOL     OW15107   4.251   4.840   3.413  0.7497 -0.6083  0.9448
 4638SOL    HW115108   4.169   4.825   3.460 -0.3360 -1.6008 -1.1259
 4638SOL    HW215109   4.226   4.896   3.340  2.1720 -0.0022  0.8884
 4639SOL     OW15110   8.028   7.463   3.541 -0.0028  0.0538 -0.2248
 4639SOL    HW115111   8.098   7.427   3.487  0.1145 -0.1675  0.0713
 4639SOL    HW215112   7.966   7.501   3.478  0.1105 -0.2401 -0.5175
 4640SOL     OW15113   3.466   7.067   2.507  0.4162 -0.3346 -0.4190
 4640SOL    HW115114   3.507   6.980   2.504 -0.4833 -0.7297 -2.1078
 4640SOL    HW215115   3.432   7.073   2.596  0.5527 -1.6869 -0.2510
 4641SOL     OW15116   6.607   1.552   2.530  0.0648 -0.0718  0.2332
 4641SOL    HW115117   6.603   1.643   2.501 -0.6021  0.0833  0.7903
 4641SOL    HW215118   6.564   1.503   2.459  3.3339 -0.4057 -1.6951
 4642SOL     OW15119   5.292   7.178   2.396  0.0425  0.6115 -0.3887
 4642SOL    HW115120   5.273   7.223   2.313  1.1269  1.0599 -0.4120
 4642SOL    HW215121   5.341   7.243   2.447 -0.5435  0.3059  0.5748
 4643SOL     OW15122   3.162   4.000   5.819  0.0711  0.3907  0.0252
 4643SOL    HW115123   3.230   4.037   5.874  0.2979  0.1985 -0.1232
 4643SOL    HW215124   3.146   4.066   5.752  0.7379  0.0745 -0.4585
 4644SOL     OW15125   6.458   0.223   4.485 -0.0852  0.3796  0.0102
 4644SOL    HW115126   6.382   0.195   4.434  0.5042  0.2990 -0.8325
 4644SOL    HW215127   6.493   0.141   4.521 -0.0530  0.3490 -0.0895
 4645SOL     OW15128   1.497   3.158   5.556 -0.5532  0.4813 -0.5411
 4645SOL    HW115129   1.559   3.224   5.586  1.2309 -0.4402 -2.0091
 4645SOL    HW215130   1.443   3.204   5.492 -0.1019  0.8152 -0.6891
 4646SOL     OW15131   8.545   0.776   8.559 -0.1897 -0.1725 -0.3722
 4646SOL    HW115132   8.465   0.748   8.604  0.4766  1.4126  1.9472
 4646SOL    HW215133   8.592   0.695   8.541 -0.7068 -0.9140  1.4237
 4647SOL     OW15134   6.549   1.919   1.619 -0.4447 -0.5552 -0.7861
 4647SOL    HW115135   6.472   1.959   1.577  0.5251  0.1755 -1.9202
 4647SOL    HW215136   6.557   1.966   1.702 -0.7764 -0.1142 -0.9958
 4648SOL     OW15137   0.070   0.961   6.488  0.0850  0.8221 -0.4686
 4648SOL    HW115138   0.039   0.944   6.399 -0.6594 -0.4326  0.0126
 4648SOL    HW215139  -0.009   0.960   6.542  0.7666 -1.1244  0.5944
 4649SOL     OW15140   7.925   6.238   4.089 -0.0767 -0.3837  0.6989
 4649SOL    HW115141   7.839   6.198   4.099 -0.6927  0.7571  0.1336
 4649SOL    HW215142   7.963   6.194   4.012 -0.9955  0.4869 -0.2907
 4650SOL     OW15143   2.272   2.802   2.451 -0.3484  0.2498  0.4469
 4650SOL    HW115144   2.281   2.790   2.545  1.6429 -2.3563  0.0431
 4650SOL    HW215145   2.215   2.730   2.423 -0.6608  0.7980 -0.3827
 4651SOL     OW15146   4.722   5.604   0.050 -0.2009  0.2089 -0.0643
 4651SOL    HW115147   4.721   5.667  -0.022 -2.3761 -1.7170 -1.8941
 4651SOL    HW215148   4.699   5.655   0.128  0.0700  1.9867 -1.1047
 4652SOL     OW15149   5.060   8.399   6.678  0.5195  0.3014 -0.1639
 4652SOL    HW115150   4.977   8.443   6.661  1.3384  1.6099 -0.9499
 4652SOL    HW215151   5.063   8.328   6.615  0.1827  0.5120 -0.4244
 4653SOL     OW15152   2.975   5.393   3.124  0.3479  0.3992  0.8131
 4653SOL    HW115153   2.949   5.449   3.051 -0.1470  0.3583  0.9521
 4653SOL    HW215154   2.893   5.377   3.172  0.0731 -2.0478 -0.3273
 4654SOL     OW15155   5.256   1.741   4.825  0.0938  0.5128 -0.0206
 4654SOL    HW115156   5.253   1.656   4.870 -0.8522 -0.4416 -1.7875
 4654SOL    HW215157   5.328   1.787   4.867  0.6870 -1.1864  0.9484
 4655SOL     OW15158   3.975   6.571   7.175  0.1105 -0.6743  0.5061
 4655SOL    HW115159   4.029   6.511   7.225  1.3906 -0.5524 -0.6701
 4655SOL    HW215160   4.027   6.591   7.097 -0.7761  1.0654  0.3196
 4656SOL     OW15161   7.772   4.342   0.777  0.1876  0.1769  0.5641
 4656SOL    HW115162   7.723   4.272   0.821 -0.2739  0.6055  0.7460
 4656SOL    HW215163   7.704   4.394   0.733  0.4712  0.8069  0.8559
 4657SOL     OW15164   1.406   7.939   2.730 -0.0460  0.1288  0.1307
 4657SOL    HW115165   1.472   8.002   2.758 -1.3968  0.7707  2.1334
 4657SOL    HW215166   1.391   7.959   2.638  1.9730  0.4569 -0.1688
 4658SOL     OW15167   2.164   4.198   4.070 -0.1748  0.5018 -0.0241
 4658SOL    HW115168   2.236   4.165   4.124  0.2123 -0.1805 -0.9329
 4658SOL    HW215169   2.114   4.255   4.128  1.3584  1.3558  0.5149
 4659SOL     OW15170   7.843   5.369   0.081 -0.1537 -0.9752 -0.3493
 4659SOL    HW115171   7.832   5.454   0.038 -2.1305 -1.3092 -0.6002
 4659SOL    HW215172   7.812   5.383   0.170  0.7965 -1.1167  0.0140
 4660SOL     OW15173   7.371   7.958   7.497 -0.5715  0.4882  0.5879
 4660SOL    HW115174   7.397   8.050   7.489 -3.4879  1.6078  2.4814
 4660SOL    HW215175   7.344   7.949   7.588 -0.1411 -2.3556  0.5011
 4661SOL     OW15176   4.872   7.284   8.007  0.0185 -0.3460 -0.1693
 4661SOL    HW115177   4.915   7.202   8.031  0.8209  0.0936 -0.0885
 4661SOL    HW215178   4.789   7.282   8.055 -0.7244 -1.8555 -1.4449
 4662SOL     OW15179   2.922   2.115   2.834  0.3158 -0.0187 -0.6224
 4662SOL    HW115180   2.923   2.030   2.790  2.2271  0.1256 -0.9454
 4662SOL    HW215181   2.923   2.093   2.928 -1.9207 -0.3152 -0.6111
 4663SOL     OW15182   2.336   1.761   2.029 -0.2244  0.3822  0.1334
 4663SOL    HW115183   2.333   1.734   1.937  0.1579  1.8128 -0.3373
 4663SOL    HW215184   2.350   1.680   2.078 -0.8389 -0.4571 -1.0364
 4664SOL     OW15185   1.815   3.264   4.540  0.1057 -0.3561  0.3592
 4664SOL    HW115186   1.735   3.306   4.507 -0.8437 -0.8260  1.9271
 4664SOL    HW215187   1.832   3.194   4.477  0.0012  0.4969 -0.6605
 4665SOL     OW15188   0.089   4.923   0.533 -0.3619 -0.3698 -0.0895
 4665SOL    HW115189   0.067   4.917   0.626  2.0334  2.4765  0.8204
 4665SOL    HW215190   0.026   4.985   0.497 -0.8717 -0.9624 -0.2333
 4666SOL     OW15191   4.259   1.832   3.357  0.2264 -0.5358 -0.2698
 4666SOL    HW115192   4.200   1.907   3.347  0.5974 -0.3913 -1.6753
 4666SOL    HW215193   4.305   1.848   3.439  0.0884  0.6399 -0.4008
 4667SOL     OW15194   7.693   3.482   3.925 -0.4111  0.1116  0.2949
 4667SOL    HW115195   7.681   3.524   4.010  0.2505 -2.5056  1.7928
 4667SOL    HW215196   7.614   3.429   3.913 -0.1607 -0.1224 -0.3603
 4668SOL     OW15197   4.497   2.147   2.274  0.0254  0.2533  0.0103
 4668SOL    HW115198   4.431   2.107   2.217  0.0783 -0.3991  0.3939
 4668SOL    HW215199   4.568   2.172   2.215 -0.3342  0.4756 -0.3353
 4669SOL     OW15200   0.579   1.793   6.114  0.3025  0.2887  0.5965
 4669SOL    HW115201   0.491   1.784   6.078  0.8869 -2.9614 -0.2819
 4669SOL    HW215202   0.579   1.736   6.191  1.9827 -0.9116 -0.2343
 4670SOL     OW15203   0.818   7.678   6.934 -0.1217  0.4285 -0.4546
 4670SOL    HW115204   0.874   7.609   6.969  0.6363  1.0150 -0.4799
 4670SOL    HW215205   0.748   7.632   6.889 -0.1972 -0.3329  0.4049
 4671SOL     OW15206   8.480   3.843   0.619 -0.3857 -0.2975  0.0912
 4671SOL    HW115207   8.478   3.931   0.656  0.6161 -0.0720 -0.3400
 4671SOL    HW215208   8.460   3.856   0.526  2.1160 -0.1675 -0.5056
 4672SOL     OW15209   7.719   7.922   4.849  0.2212 -0.4824 -0.3060
 4672SOL    HW115210   7.714   7.833   4.814 -0.7604  0.1458 -1.8436
 4672SOL    HW215211   7.642   7.966   4.814 -0.8432  0.2506  2.6462
 4673SOL     OW15212   7.982   5.029   4.931  0.0339  0.3256 -0.0687
 4673SOL    HW115213   8.025   5.112   4.911  1.7103 -0.4814 -0.0110
 4673SOL    HW215214   8.047   4.962   4.908 -0.5883 -0.9113  1.5485
 4674SOL     OW15215   2.878   4.197   5.309 -0.1218  0.1995 -0.0768
 4674SOL    HW115216   2.942   4.127   5.294 -1.0236 -0.4790 -0.8807
 4674SOL    HW215217   2.834   4.206   5.225 -2.2610 -0.5409  0.9008
 4675SOL     OW15218   4.994   6.044   5.616 -0.2764  0.4506  0.4642
 4675SOL    HW115219   4.990   5.979   5.546 -0.2411  0.0646  0.8184
 4675SOL    HW215220   4.906   6.045   5.653  0.2505 -0.9040  1.8123
 4676SOL     OW15221   3.703   7.981   2.262  0.3744 -0.0117  0.1681
 4676SOL    HW115222   3.778   7.982   2.202  0.4257  1.5726  0.2272
 4676SOL    HW215223   3.629   7.955   2.207  0.8800 -1.2490  0.0356
 4677SOL     OW15224   7.604   3.892   8.324  0.0284  0.5721 -0.3008
 4677SOL    HW115225   7.568   3.941   8.250 -0.6279 -0.2988 -0.5742
 4677SOL    HW215226   7.587   3.800   8.303  1.1143  0.2279  0.2665
 4678SOL     OW15227   2.856   3.883   8.220  0.6284 -0.3723  0.1289
 4678SOL    HW115228   2.898   3.963   8.252  0.0591 -0.0719  0.1332
 4678SOL    HW215229   2.896   3.869   8.134  0.6727 -0.0407  0.0918
 4679SOL     OW15230   2.724   3.022   2.054 -0.0256  0.3261 -0.2385
 4679SOL    HW115231   2.782   2.945   2.044  0.0013  0.1241  1.3132
 4679SOL    HW215232   2.752   3.062   2.136 -1.4621  0.7844  0.0384
 4680SOL     OW15233   3.852   4.885   0.157 -0.2454 -0.5551  0.2622
 4680SOL    HW115234   3.833   4.820   0.224 -1.5843 -1.9453 -1.3480
 4680SOL    HW215235   3.931   4.853   0.113  0.0081 -0.2356  0.4846
 4681SOL     OW15236   0.220   3.735   0.071 -0.5676 -0.3390 -0.6609
 4681SOL    HW115237   0.285   3.665   0.071 -0.1313  0.0424  0.1567
 4681SOL    HW215238   0.143   3.697   0.114  0.0226 -0.0411  0.7342
 4682SOL     OW15239   8.202   7.865   6.108 -0.3099  0.2210 -0.6351
 4682SOL    HW115240   8.220   7.921   6.032  1.0202 -1.2461 -1.4532
 4682SOL    HW215241   8.108   7.847   6.102 -0.2812  0.3616 -1.7719
 4683SOL     OW15242   6.557   7.985   3.854 -0.0746  0.1555  0.5529
 4683SOL    HW115243   6.500   8.055   3.886 -0.9886 -0.5878  0.5878
 4683SOL    HW215244   6.564   7.924   3.927 -1.1231 -0.9073 -0.2151
 4684SOL     OW15245   5.202   5.311   8.499  0.1957 -0.2592 -0.1067
 4684SOL    HW115246   5.118   5.358   8.495 -0.4590 -1.3755 -0.0244
 4684SOL    HW215247   5.245   5.344   8.578 -1.4673 -1.7262  1.5041
 4685SOL     OW15248   2.457   6.752   3.655  0.1259  0.0581  0.0115
 4685SOL    HW115249   2.460   6.699   3.575 -1.5305 -0.3589  0.2032
 4685SOL    HW215250   2.449   6.842   3.625  2.1778  0.1893 -0.3030
 4686SOL     OW15251   2.864   2.406   3.366 -0.6928 -0.0261  0.2948
 4686SOL    HW115252   2.917   2.331   3.393  2.1157  1.2457 -1.1952
 4686SOL    HW215253   2.875   2.410   3.271 -0.7629  2.2124  0.3154
 4687SOL     OW15254   1.087   3.041   4.477  0.0911  0.4845 -0.0182
 4687SOL    HW115255   1.156   3.106   4.460 -0.3415  0.5702 -1.6150
 4687SOL    HW215256   1.097   3.019   4.569 -0.7996  4.0306  1.0638
 4688SOL     OW15257   3.072   1.244   6.001 -0.3272 -0.0871 -0.0829
 4688SOL    HW115258   3.053   1.334   5.975 -0.5878 -0.2222 -0.3567
 4688SOL    HW215259   2.992   1.213   6.042 -0.8543 -0.7827 -1.5838
 4689SOL     OW15260   5.622   4.316   4.053  0.4303  0.1377 -0.1339
 4689SOL    HW115261   5.531   4.333   4.077  0.3342 -1.0834  0.4884
 4689SOL    HW215262   5.671   4.327   4.135  0.6802 -0.2775 -0.2228
 4690SOL     OW15263   1.902   7.909   1.689 -0.1601  0.3600 -0.6638
 4690SOL    HW115264   1.857   7.897   1.773  0.3887  0.8255 -0.2969
 4690SOL    HW215265   1.984   7.862   1.699 -0.0936  0.4215 -0.9424
 4691SOL     OW15266   7.257   1.680   7.371  0.3395  0.2777 -0.0371
 4691SOL    HW115267   7.314   1.613   7.409  2.2302  1.5340 -0.5001
 4691SOL    HW215268   7.284   1.761   7.413 -0.9235  0.9758 -0.5217
 4692SOL     OW15269   8.130   1.732   8.502  0.1902  0.3469 -0.0453
 4692SOL    HW115270   8.090   1.680   8.571 -0.3511  2.0021  0.9603
 4692SOL    HW215271   8.224   1.725   8.518  0.1929 -1.0610 -0.5300
 4693SOL     OW15272   6.102   3.775   1.264 -0.2704  0.1543  0.0754
 4693SOL    HW115273   6.055   3.692   1.262 -0.2261  0.1070  0.7534
 4693SOL    HW215274   6.195   3.751   1.265 -0.2190  0.2439 -1.0133
 4694SOL     OW15275   0.260   6.382   1.486  0.2502  0.6866  0.2746
 4694SOL    HW115276   0.326   6.437   1.528  0.5829  0.2564  0.3107
 4694SOL    HW215277   0.177   6.429   1.502  0.6870  1.9779 -1.0055
 4695SOL     OW15278   6.820   2.977   6.694  0.0050 -0.1916  0.4365
 4695SOL    HW115279   6.816   3.056   6.641 -1.1774 -0.4740  0.0772
 4695SOL    HW215280   6.855   2.910   6.634  0.0187 -0.1824  0.4341
 4696SOL     OW15281   7.115   5.124   2.109 -0.0667 -0.1089 -0.7640
 4696SOL    HW115282   7.068   5.042   2.127  0.1286 -0.0311  0.1507
 4696SOL    HW215283   7.207   5.102   2.125 -0.0636  0.4124 -0.0735
 4697SOL     OW15284   1.615   7.675   4.155 -0.3960  0.2702 -0.0505
 4697SOL    HW115285   1.586   7.746   4.213  1.1022 -0.2338  1.4089
 4697SOL    HW215286   1.545   7.666   4.091 -0.7509  2.8805 -0.1292
 4698SOL     OW15287   4.067   2.585   5.409 -0.9144  0.1297  0.1502
 4698SOL    HW115288   4.111   2.512   5.452  0.7134  1.4124  0.7808
 4698SOL    HW215289   4.029   2.636   5.481  0.4705  1.4349  0.0127
 4699SOL     OW15290   2.841   7.152   3.484  0.1413 -0.1997 -0.0632
 4699SOL    HW115291   2.864   7.135   3.576 -0.2949 -0.7924 -0.0586
 4699SOL    HW215292   2.903   7.100   3.433 -0.1478 -0.5289 -0.0832
 4700SOL     OW15293   3.831   1.832   0.883  0.5145  0.0643  0.7480
 4700SOL    HW115294   3.808   1.915   0.841 -2.5932 -1.1827 -0.3038
 4700SOL    HW215295   3.791   1.838   0.970  1.4325  0.1595  1.1710
 4701SOL     OW15296   0.816   0.387   8.099  0.1140 -0.2523  0.2831
 4701SOL    HW115297   0.861   0.305   8.080  1.0327 -0.0793  1.6340
 4701SOL    HW215298   0.843   0.410   8.187 -2.8024 -0.2509  1.2971
 4702SOL     OW15299   6.702   1.772   1.030 -0.4813 -0.1418  0.2386
 4702SOL    HW115300   6.766   1.797   1.097  0.5043  1.4476 -1.2037
 4702SOL    HW215301   6.676   1.683   1.054  2.8329 -1.1835  0.5095
 4703SOL     OW15302   7.661   3.037   3.401  0.6275  0.0705  0.2222
 4703SOL    HW115303   7.751   3.069   3.395  0.8870 -0.5442  0.7572
 4703SOL    HW215304   7.610   3.102   3.352  1.5601 -0.4059 -1.4761
 4704SOL     OW15305   5.573   7.993   4.260 -0.0262 -0.0649  0.0175
 4704SOL    HW115306   5.634   8.028   4.195  0.6563 -0.5614  0.3791
 4704SOL    HW215307   5.613   8.014   4.344 -0.0678 -0.8764  0.2535
 4705SOL     OW15308   4.983   6.394   5.464  0.0609  0.5485  0.4371
 4705SOL    HW115309   4.891   6.369   5.455  0.1113 -0.1193  1.6160
 4705SOL    HW215310   4.993   6.420   5.555  1.3968 -1.0049  0.7824
 4706SOL     OW15311   8.248   3.670   5.273 -0.0742  0.0785  0.2096
 4706SOL    HW115312   8.231   3.585   5.313  0.5813  0.0276  0.3936
 4706SOL    HW215313   8.164   3.716   5.277 -0.3408 -0.4214  0.4355
 4707SOL     OW15314   7.727   1.184   3.219 -0.0531 -0.0493 -0.3804
 4707SOL    HW115315   7.756   1.094   3.234  0.7622  0.1816 -0.5474
 4707SOL    HW215316   7.758   1.205   3.131 -0.4607  0.3140 -0.4425
 4708SOL     OW15317   1.994   7.638   0.869  0.0759 -0.2690 -0.0642
 4708SOL    HW115318   1.973   7.583   0.794 -0.9342  0.5215 -0.3908
 4708SOL    HW215319   2.023   7.576   0.936  0.8354 -1.0026 -1.0370
 4709SOL     OW15320   6.106   6.052   2.568  0.1809 -0.0282 -0.4011
 4709SOL    HW115321   6.032   5.991   2.573  0.1017  0.1485  1.6296
 4709SOL    HW215322   6.099   6.092   2.482 -1.4327 -0.8335 -0.6811
 4710SOL     OW15323   3.838   0.055   0.559 -0.4082  0.1700 -0.3345
 4710SOL    HW115324   3.920   0.006   0.560 -0.5983 -0.2955 -2.7104
 4710SOL    HW215325   3.772  -0.007   0.590 -0.3546 -0.5091 -1.5463
 4711SOL     OW15326   6.086   0.229   1.952  0.6416  0.4829  0.0107
 4711SOL    HW115327   6.143   0.243   2.028  1.9236  0.1887 -0.8628
 4711SOL    HW215328   6.071   0.317   1.917  1.1378  0.5070 -0.1505
 4712SOL     OW15329   0.186   6.407   3.213 -0.9037  0.2619  0.3961
 4712SOL    HW115330   0.226   6.484   3.254  4.3215 -1.0744 -1.2923
 4712SOL    HW215331   0.207   6.335   3.272 -1.8109 -0.4357 -0.1143
 4713SOL     OW15332   4.979   5.789   6.547 -0.0865 -0.4600 -0.1242
 4713SOL    HW115333   4.943   5.870   6.511  1.7383  0.7837  0.7056
 4713SOL    HW215334   5.071   5.809   6.566  0.7697 -3.0716 -0.9434
 4714SOL     OW15335   1.103   3.325   1.598 -0.7575 -0.4022  0.3885
 4714SOL    HW115336   1.141   3.253   1.648 -0.8371  0.4194  1.6865
 4714SOL    HW215337   1.043   3.283   1.536 -0.5048 -1.4606  0.8494
 4715SOL     OW15338   7.656   1.503   5.367 -0.8010  0.6578  0.3759
 4715SOL    HW115339   7.697   1.551   5.440 -0.9501  1.1168  0.1613
 4715SOL    HW215340   7.694   1.541   5.288 -0.9591  0.4556  0.1994
 4716SOL     OW15341   3.852   3.571   0.513  0.0613  0.5703  1.0542
 4716SOL    HW115342   3.838   3.495   0.569 -1.2561  2.4212  3.3954
 4716SOL    HW215343   3.765   3.601   0.491  0.5416  1.9589  0.9800
 4717SOL     OW15344   7.639   4.581   6.735  0.2832 -0.0066 -0.0497
 4717SOL    HW115345   7.598   4.514   6.679 -1.1367  0.7974 -0.0167
 4717SOL    HW215346   7.579   4.590   6.809  1.3835  0.0322  0.8546
 4718SOL     OW15347   8.129   7.549   5.921 -0.0153  0.1047  0.4233
 4718SOL    HW115348   8.175   7.585   5.996 -0.1047  0.7242  0.1875
 4718SOL    HW215349   8.179   7.579   5.845 -0.2384 -0.0488  0.2117
 4719SOL     OW15350   8.325   0.721   4.534 -0.2091 -0.2054  0.3019
 4719SOL    HW115351   8.236   0.686   4.526  0.1438 -0.8229 -1.3340
 4719SOL    HW215352   8.346   0.711   4.627 -1.1472 -1.8274  0.3920
 4720SOL     OW15353   4.483   2.675   3.705  0.3443 -0.1977 -0.1001
 4720SOL    HW115354   4.443   2.677   3.792 -0.6093  0.8777 -0.5448
 4720SOL    HW215355   4.430   2.735   3.652  1.5465 -0.0194 -1.1552
 4721SOL     OW15356   8.415   5.883   1.098 -0.0846 -0.1421 -0.5459
 4721SOL    HW115357   8.421   5.788   1.096  1.1723 -0.1375  1.0230
 4721SOL    HW215358   8.506   5.913   1.103 -0.4456  0.8851  3.6967
 4722SOL     OW15359   7.435   3.328   5.729 -0.1760  0.0016 -0.0308
 4722SOL    HW115360   7.467   3.417   5.739 -0.6279  0.7472 -3.6771
 4722SOL    HW215361   7.471   3.298   5.645  0.0157 -3.3116  1.0877
 4723SOL     OW15362   1.206   5.326   2.649  0.3298 -0.3637 -0.0308
 4723SOL    HW115363   1.242   5.402   2.693 -0.2862  0.2441 -0.5592
 4723SOL    HW215364   1.274   5.299   2.587  0.6990 -0.4837  0.4205
 4724SOL     OW15365   7.165   5.284   3.731  0.5433 -0.2644 -0.0283
 4724SOL    HW115366   7.157   5.238   3.815  0.8790  0.1383  0.2279
 4724SOL    HW215367   7.236   5.347   3.745 -0.8363  1.3377  0.1144
 4725SOL     OW15368   3.182   3.026   3.825 -0.4841 -0.0288  0.1853
 4725SOL    HW115369   3.269   3.011   3.790 -0.7140  1.3232 -1.0538
 4725SOL    HW215370   3.171   2.958   3.892  2.3074  1.0296  1.8987
 4726SOL     OW15371   3.709   2.211   3.416  0.3270  0.3394  0.2276
 4726SOL    HW115372   3.766   2.177   3.346 -0.9502 -0.5266 -0.4239
 4726SOL    HW215373   3.754   2.185   3.497  1.4959  0.7775 -0.2534
 4727SOL     OW15374   8.052   4.649   0.879  0.2338  0.5153 -0.0588
 4727SOL    HW115375   8.121   4.690   0.931 -0.7143  1.3847  0.5525
 4727SOL    HW215376   7.970   4.679   0.919 -0.5110 -0.3083 -0.9018
 4728SOL     OW15377   6.398   1.921   2.932  0.1578  0.0970  0.3570
 4728SOL    HW115378   6.369   1.941   2.843  0.4839  1.0913  0.4710
 4728SOL    HW215379   6.451   1.842   2.923 -2.2084 -1.5781  0.0803
 4729SOL     OW15380   3.889   5.890   3.002 -0.0620  0.0192  0.0023
 4729SOL    HW115381   3.874   5.812   2.949 -0.5169  0.1072 -0.0031
 4729SOL    HW215382   3.935   5.951   2.944  0.2284 -0.2171 -0.0151
 4730SOL     OW15383   7.643   1.131   4.952  0.1053 -0.3644  0.6789
 4730SOL    HW115384   7.632   1.121   4.858  0.1698  0.2775  0.5995
 4730SOL    HW215385   7.580   1.070   4.990  0.1811 -0.7306  0.2201
 4731SOL     OW15386   6.519   0.356   2.182  0.4995 -0.6087 -0.7330
 4731SOL    HW115387   6.525   0.360   2.277  0.0583  1.4011 -0.7374
 4731SOL    HW215388   6.609   0.345   2.153  0.8070  0.1390 -0.1005
 4732SOL     OW15389   7.862   8.026   1.337  0.3249  0.0582 -0.7709
 4732SOL    HW115390   7.935   8.027   1.399 -1.2582 -1.6864  1.2964
 4732SOL    HW215391   7.878   7.949   1.283  0.6757  0.4270 -1.1956
 4733SOL     OW15392   1.615   2.617   1.475  0.0293  0.5752  0.3518
 4733SOL    HW115393   1.557   2.602   1.401  0.3721  1.2515 -0.0740
 4733SOL    HW215394   1.575   2.570   1.547 -0.1021 -0.4327 -0.3574
 4734SOL     OW15395   3.870   1.220   5.205 -0.0489 -0.0183  0.5370
 4734SOL    HW115396   3.876   1.192   5.296 -1.9840  1.3083  1.1167
 4734SOL    HW215397   3.782   1.257   5.196  0.0541 -0.1838 -1.8959
 4735SOL     OW15398   7.282   5.326   0.775  0.2310  0.4679  0.4624
 4735SOL    HW115399   7.266   5.365   0.861 -0.6784 -1.2574  1.1110
 4735SOL    HW215400   7.376   5.337   0.761  0.2319  1.6565  1.2015
 4736SOL     OW15401   4.615   0.853   7.319  0.0244  0.4119  0.2409
 4736SOL    HW115402   4.529   0.870   7.356  1.3475  1.2694  3.2414
 4736SOL    HW215403   4.643   0.937   7.284 -0.1909  0.2300 -0.3735
 4737SOL     OW15404   1.642   4.360   7.874  0.4673 -0.4062  0.3097
 4737SOL    HW115405   1.628   4.327   7.786 -2.1481  2.6207 -0.5951
 4737SOL    HW215406   1.701   4.435   7.863  1.1933 -0.7937  1.3580
 4738SOL     OW15407   5.274   5.118   2.881 -0.2909  0.0247  0.0155
 4738SOL    HW115408   5.243   5.208   2.886 -1.4789 -0.3579 -0.1193
 4738SOL    HW215409   5.360   5.120   2.923 -0.2988  1.2115  0.0149
 4739SOL     OW15410   3.802   5.279   7.961  0.0959 -0.3301  0.5709
 4739SOL    HW115411   3.853   5.291   8.041  0.6168  2.0940 -0.0412
 4739SOL    HW215412   3.806   5.364   7.918 -1.0662 -1.2757 -1.5193
 4740SOL     OW15413   7.617   8.517   4.101 -0.5788  0.0586  0.1404
 4740SOL    HW115414   7.546   8.551   4.047 -0.6415  0.4113  0.4391
 4740SOL    HW215415   7.594   8.543   4.190 -1.4197 -2.0502  0.6078
 4741SOL     OW15416   8.352   7.461   7.904  0.1314  0.1128 -0.6814
 4741SOL    HW115417   8.394   7.406   7.839 -1.0770 -2.6325  0.6962
 4741SOL    HW215418   8.418   7.527   7.926  1.2812 -0.1291 -3.1457
 4742SOL     OW15419   2.221   2.671   3.399 -0.6979  0.4544 -0.6259
 4742SOL    HW115420   2.289   2.689   3.334 -0.5183  1.4018 -0.2078
 4742SOL    HW215421   2.151   2.627   3.351  0.8188 -1.9705 -0.7723
 4743SOL     OW15422   6.365   2.651   4.739 -0.3883 -0.0097 -0.1944
 4743SOL    HW115423   6.340   2.722   4.799 -1.8149 -0.1557 -0.5838
 4743SOL    HW215424   6.307   2.662   4.663  1.4079  0.1994 -1.6035
 4744SOL     OW15425   3.389   0.220   0.921  0.1209  0.3062 -0.0038
 4744SOL    HW115426   3.295   0.213   0.904  0.3639 -1.2039 -0.8335
 4744SOL    HW215427   3.430   0.183   0.843  1.3911  0.0889  0.7499
 4745SOL     OW15428   6.243   1.270   7.135 -0.0819  0.7142  0.2634
 4745SOL    HW115429   6.253   1.178   7.160 -0.3405  0.7177  0.3807
 4745SOL    HW215430   6.219   1.267   7.042 -0.7354  0.6331  0.4271
 4746SOL     OW15431   3.013   2.052   0.339 -0.0360  0.5352  0.1845
 4746SOL    HW115432   3.090   2.086   0.384  0.1985  1.3821 -0.8163
 4746SOL    HW215433   2.997   1.967   0.380  0.9015  0.7318  0.9998
 4747SOL     OW15434   0.130   5.871   1.848 -0.0004  0.1772 -0.0556
 4747SOL    HW115435   0.051   5.879   1.794  0.2281 -0.5373 -0.5117
 4747SOL    HW215436   0.189   5.816   1.797 -0.1838 -1.4184  1.3651
 4748SOL     OW15437   1.294   3.192   2.161  0.0303  0.2743 -0.0812
 4748SOL    HW115438   1.270   3.267   2.217 -0.1166  1.7081 -1.9644
 4748SOL    HW215439   1.231   3.124   2.184 -0.2945  0.9622  1.1812
 4749SOL     OW15440   0.962   8.256   5.625 -0.4535 -0.2917  0.0207
 4749SOL    HW115441   0.921   8.170   5.628 -1.4580  0.0500 -2.1442
 4749SOL    HW215442   1.052   8.240   5.595  0.0475 -0.7354  1.6602
 4750SOL     OW15443   7.312   7.019   4.342 -0.0871  0.0619 -0.0294
 4750SOL    HW115444   7.367   6.943   4.356  0.3297  0.4664  0.5944
 4750SOL    HW215445   7.335   7.079   4.414  0.1618  1.0943 -0.9386
 4751SOL     OW15446   4.311   3.374   1.105 -0.0956  0.0262  0.4083
 4751SOL    HW115447   4.233   3.425   1.126  0.5636  1.0524  0.4490
 4751SOL    HW215448   4.325   3.318   1.181  0.0044  0.8436  1.0004
 4752SOL     OW15449   0.391   8.110   2.584  0.3953 -0.2927 -0.3158
 4752SOL    HW115450   0.305   8.123   2.622  0.1519 -0.7149 -0.7023
 4752SOL    HW215451   0.412   8.193   2.540  0.7634  0.2620  0.8722
 4753SOL     OW15452   1.262   5.388   5.944 -0.0792 -0.1114 -0.3275
 4753SOL    HW115453   1.321   5.320   5.979 -0.8240 -0.8243 -0.4243
 4753SOL    HW215454   1.233   5.352   5.860  0.4845  0.8967 -0.9744
 4754SOL     OW15455   3.206   3.482   4.699  0.5857  0.1528  0.3955
 4754SOL    HW115456   3.121   3.524   4.686  1.1538  1.1773 -0.1146
 4754SOL    HW215457   3.251   3.493   4.615  1.6202  0.5638  0.9901
 4755SOL     OW15458   2.505   5.813   8.159  0.3445  0.1167  0.3782
 4755SOL    HW115459   2.435   5.809   8.224  1.8164 -0.7715  2.0271
 4755SOL    HW215460   2.512   5.906   8.137 -1.0320  0.2701  0.5284
 4756SOL     OW15461   4.776   1.994   0.217 -0.9425  0.3778 -0.3532
 4756SOL    HW115462   4.803   1.910   0.178 -1.1439 -0.5276  1.3635
 4756SOL    HW215463   4.683   2.002   0.195 -1.1949 -0.4000  0.3646
 4757SOL     OW15464   1.911   3.612   5.049 -0.2491  0.6898  0.0580
 4757SOL    HW115465   2.006   3.614   5.039 -0.1224 -1.1411  0.5172
 4757SOL    HW215466   1.883   3.538   4.996 -1.3506  0.8470  0.3950
 4758SOL     OW15467   0.845   5.448   2.992  0.0311 -0.5502 -0.0712
 4758SOL    HW115468   0.838   5.407   2.906 -0.9029  1.0129 -0.7920
 4758SOL    HW215469   0.914   5.514   2.982  1.6699 -1.9864  1.1278
 4759SOL     OW15470   0.291   6.299   2.634  0.2516  0.1452 -0.1407
 4759SOL    HW115471   0.213   6.283   2.688 -0.1405 -2.1808 -1.2548
 4759SOL    HW215472   0.364   6.300   2.696 -0.5470  1.6042  0.8312
 4760SOL     OW15473   6.305   2.557   2.754 -0.0057 -0.7824 -0.1463
 4760SOL    HW115474   6.285   2.586   2.665 -0.3998  0.8214  0.4419
 4760SOL    HW215475   6.241   2.602   2.809  1.6444  0.0386  1.1832
 4761SOL     OW15476   8.048   8.342   8.194  0.0912  0.2204 -0.1138
 4761SOL    HW115477   8.099   8.316   8.271 -0.6989 -2.6439 -0.4239
 4761SOL    HW215478   8.038   8.437   8.202  1.9474  0.3032  2.0926
 4762SOL     OW15479   6.262   6.984   2.376  0.5268  0.1600  0.2246
 4762SOL    HW115480   6.308   6.991   2.460 -0.3750 -0.4593  0.7824
 4762SOL    HW215481   6.170   6.973   2.400  0.3451 -0.7955 -0.8320
 4763SOL     OW15482   1.066   5.471   2.068  0.3602 -0.4552  0.3256
 4763SOL    HW115483   1.052   5.487   2.161 -1.8797  0.9820 -0.1997
 4763SOL    HW215484   1.042   5.379   2.055 -0.6719 -0.2831  0.9403
 4764SOL     OW15485   6.344   5.825   2.515  0.1492  0.1503  0.1171
 4764SOL    HW115486   6.269   5.880   2.495 -0.4283 -0.1955  1.2409
 4764SOL    HW215487   6.409   5.884   2.552 -0.1658  0.2025  0.5856
 4765SOL     OW15488   4.927   7.988   7.929  0.0907 -0.2419  0.1244
 4765SOL    HW115489   4.909   7.977   7.836 -0.9100 -0.2967  0.3084
 4765SOL    HW215490   4.844   8.019   7.966 -0.4388 -2.8863  1.4497
 4766SOL     OW15491   2.691   1.393   0.444  0.0649 -0.2693  0.4990
 4766SOL    HW115492   2.646   1.348   0.516 -1.6265  0.8056  0.1647
 4766SOL    HW215493   2.640   1.473   0.430  1.4587  0.4560 -0.6705
 4767SOL     OW15494   3.571   2.729   4.265 -0.0951  0.3717  0.3596
 4767SOL    HW115495   3.531   2.648   4.295  1.8111 -0.2999  1.1837
 4767SOL    HW215496   3.642   2.746   4.327  1.1412  1.3086 -1.2345
 4768SOL     OW15497   3.511   2.991   6.247 -0.5444  0.3462  0.0790
 4768SOL    HW115498   3.547   2.953   6.327 -0.0439  1.3471  0.3458
 4768SOL    HW215499   3.503   3.085   6.266 -0.0365  0.6670 -1.1724
 4769SOL     OW15500   8.510   1.747   1.699  0.1801 -0.4748  0.1933
 4769SOL    HW115501   8.588   1.704   1.734  0.4782  0.4451  0.6753
 4769SOL    HW215502   8.543   1.807   1.633  0.0372  0.9929  1.4185
 4770SOL     OW15503   7.225   5.379   7.378  0.0435  0.4571  0.5752
 4770SOL    HW115504   7.262   5.411   7.297  1.9510 -1.3293  0.6582
 4770SOL    HW215505   7.294   5.391   7.443  0.9941 -3.5921  0.5899
 4771SOL     OW15506   2.378   4.870   0.836  0.1448  0.1680 -0.0393
 4771SOL    HW115507   2.287   4.875   0.866  0.4192 -1.7195  1.2232
 4771SOL    HW215508   2.376   4.807   0.764  0.4159  0.3734 -0.2304
 4772SOL     OW15509   8.329   2.120   0.405 -0.1144  0.2937  0.0941
 4772SOL    HW115510   8.313   2.034   0.366 -0.4410  0.3678  0.0639
 4772SOL    HW215511   8.354   2.100   0.495 -0.6221  0.1906  0.2124
 4773SOL     OW15512   8.280   8.199   7.275  0.8107 -0.2220 -0.1891
 4773SOL    HW115513   8.223   8.128   7.303  0.4077  0.1606 -0.0145
 4773SOL    HW215514   8.343   8.210   7.346 -0.2805  0.8243  0.6462
 4774SOL     OW15515   8.502   7.739   1.920  0.1186  0.3145  0.3997
 4774SOL    HW115516   8.591   7.750   1.955 -0.1289 -0.5906  1.3696
 4774SOL    HW215517   8.462   7.825   1.931  0.5369  0.4465  0.9883
 4775SOL     OW15518   6.799   1.088   5.443 -0.2054 -0.9313  0.9401
 4775SOL    HW115519   6.731   1.082   5.375  0.9677 -1.1350 -0.2520
 4775SOL    HW215520   6.765   1.034   5.515 -1.2753 -1.0803  0.3494
 4776SOL     OW15521   7.518   5.170   3.712 -0.3700  0.0533  0.7108
 4776SOL    HW115522   7.509   5.201   3.802 -0.2882 -0.4867  0.9043
 4776SOL    HW215523   7.483   5.081   3.713  0.4680 -0.2833  0.4056
 4777SOL     OW15524   0.917   6.186   7.826 -0.9460  0.5019  0.2905
 4777SOL    HW115525   0.889   6.111   7.879 -0.4666 -0.1860 -0.4103
 4777SOL    HW215526   0.844   6.248   7.834 -1.5687 -0.2304  0.5005
 4778SOL     OW15527   6.639   1.193   5.089  0.4411  0.2048 -0.6717
 4778SOL    HW115528   6.722   1.230   5.058  0.3728  2.7946  1.8274
 4778SOL    HW215529   6.587   1.269   5.115 -2.5071 -1.3860 -1.5416
 4779SOL     OW15530   8.105   2.982   2.061  0.9243 -0.1299 -0.4746
 4779SOL    HW115531   8.028   2.960   2.008 -0.0149 -0.0644  0.8355
 4779SOL    HW215532   8.072   3.037   2.131  2.2249  0.1455 -0.0427
 4780SOL     OW15533   5.356   3.393   6.208  0.2653 -0.2339 -0.0552
 4780SOL    HW115534   5.420   3.333   6.171 -0.2402  0.0169 -1.3716
 4780SOL    HW215535   5.383   3.479   6.176  1.0937  0.3117  1.9580
 4781SOL     OW15536   5.370   4.168   7.933 -0.4872  0.9979  0.5095
 4781SOL    HW115537   5.407   4.157   8.021  0.3983 -0.8735 -0.0504
 4781SOL    HW215538   5.342   4.080   7.908 -0.0381  1.3497 -1.3705
 4782SOL     OW15539   3.863   4.062   6.322  0.6852 -0.4362 -0.0552
 4782SOL    HW115540   3.888   3.992   6.382 -1.2463 -0.4206  0.8390
 4782SOL    HW215541   3.769   4.050   6.308  0.2562  2.0050  0.2210
 4783SOL     OW15542   1.922   1.697   1.718 -0.1897  0.3854  0.0192
 4783SOL    HW115543   1.987   1.749   1.670  0.7408  0.3516  1.1689
 4783SOL    HW215544   1.942   1.715   1.810 -1.9842  0.5431  0.4076
 4784SOL     OW15545   5.504   2.948   6.355  0.6334  0.2201 -0.0182
 4784SOL    HW115546   5.540   2.862   6.376 -1.8066 -0.6113  1.0145
 4784SOL    HW215547   5.532   3.004   6.428 -0.9350 -0.6671  1.3172
 4785SOL     OW15548   7.733   0.717   3.496 -0.1344 -0.2065 -0.7874
 4785SOL    HW115549   7.647   0.697   3.459  0.2398 -0.7039 -1.3874
 4785SOL    HW215550   7.795   0.664   3.446  0.4859 -0.1484 -0.1014
 4786SOL     OW15551   0.072   7.440   0.852 -0.1144  0.1705  0.1598
 4786SOL    HW115552   0.014   7.498   0.803  0.2882  2.2513  1.9425
 4786SOL    HW215553   0.029   7.430   0.937  0.9649 -0.2586  0.6707
 4787SOL     OW15554   5.834   6.545   0.184 -0.8740 -0.1280  0.0756
 4787SOL    HW115555   5.838   6.591   0.100 -0.7376  2.1082  1.2146
 4787SOL    HW215556   5.909   6.485   0.182 -0.4397  0.4204 -1.1210
 4788SOL     OW15557   6.586   2.950   0.164  0.1851  0.8666  0.4486
 4788SOL    HW115558   6.543   2.997   0.235 -1.7776  2.0644 -1.4456
 4788SOL    HW215559   6.537   2.973   0.085  2.3963 -0.2324 -1.3790
 4789SOL     OW15560   2.947   7.187   6.712 -0.3459  0.0497  0.5270
 4789SOL    HW115561   2.906   7.266   6.746 -1.6609  0.0929 -1.0409
 4789SOL    HW215562   2.894   7.163   6.636  1.6883 -0.7189 -0.7395
 4790SOL     OW15563   4.309   7.679   0.920 -0.1254 -0.1549 -0.2889
 4790SOL    HW115564   4.292   7.773   0.922 -1.4764 -0.3545 -0.9291
 4790SOL    HW215565   4.339   7.662   0.831 -3.3964 -0.7952 -1.4291
 4791SOL     OW15566   3.743   8.189   2.579  0.0983  0.2111 -0.0638
 4791SOL    HW115567   3.695   8.107   2.591  0.1946  0.2156  0.3844
 4791SOL    HW215568   3.726   8.214   2.489 -0.7433  0.2148  0.0899
 4792SOL     OW15569   8.476   0.935   6.659 -0.0899  0.3011  0.1224
 4792SOL    HW115570   8.419   0.981   6.722 -1.8132  0.3624 -1.3985
 4792SOL    HW215571   8.444   0.845   6.659  0.8880 -0.0608  0.4028
 4793SOL     OW15572   8.383   4.730   1.248  0.1693 -1.1361  0.1872
 4793SOL    HW115573   8.296   4.755   1.218  0.5460 -1.5534 -1.3392
 4793SOL    HW215574   8.371   4.642   1.284 -0.3909 -0.4184  1.8530
 4794SOL     OW15575   4.597   0.587   7.243  0.2485  0.1122  0.3090
 4794SOL    HW115576   4.601   0.682   7.257 -0.4838 -0.2754  4.1864
 4794SOL    HW215577   4.662   0.551   7.303  0.9157 -1.8812 -1.4995
 4795SOL     OW15578   6.245   4.104   0.444 -0.4543  0.0336  0.1474
 4795SOL    HW115579   6.289   4.036   0.494  0.4938  0.1460 -0.5127
 4795SOL    HW215580   6.291   4.106   0.360 -1.3182  0.5835 -0.3292
 4796SOL     OW15581   8.429   7.215   6.512  0.1200  0.2518  0.0930
 4796SOL    HW115582   8.388   7.228   6.427 -1.4418 -0.2909  0.7323
 4796SOL    HW215583   8.523   7.219   6.494 -0.1878  1.6264 -1.3976
 4797SOL     OW15584   5.575   0.699   2.709  1.0177 -0.1801 -0.0038
 4797SOL    HW115585   5.503   0.710   2.647  0.2032 -0.2023  0.9220
 4797SOL    HW215586   5.583   0.604   2.719 -0.3231 -0.1715  1.5661
 4798SOL     OW15587   7.489   0.932   6.965 -0.5612  0.0717 -0.2564
 4798SOL    HW115588   7.453   0.919   7.053  0.7997 -2.0606  0.0551
 4798SOL    HW215589   7.475   0.849   6.920 -0.6043  0.8871 -1.8552
 4799SOL     OW15590   8.116   6.558   1.092 -0.5555 -0.2689 -0.0061
 4799SOL    HW115591   8.126   6.626   1.026  1.0005 -0.3881  0.0666
 4799SOL    HW215592   8.041   6.506   1.063 -1.3496  1.0657 -0.4101
 4800SOL     OW15593   6.466   5.290   3.745 -0.2642 -0.0888 -0.3384
 4800SOL    HW115594   6.411   5.273   3.668 -0.6203  0.8846 -0.3183
 4800SOL    HW215595   6.505   5.375   3.728  0.3569 -0.2702  0.1652
 4801SOL     OW15596   1.306   4.158   8.107  0.0244  0.1614  0.1060
 4801SOL    HW115597   1.352   4.238   8.081 -0.7971  0.7088  0.3178
 4801SOL    HW215598   1.328   4.095   8.039  0.2805  0.7044 -0.3279
 4802SOL     OW15599   6.844   7.200   5.775  0.2621  0.7023  0.2482
 4802SOL    HW115600   6.905   7.237   5.710  0.5294 -1.8017 -1.0407
 4802SOL    HW215601   6.882   7.115   5.798 -1.2095  0.3979  1.7154
 4803SOL     OW15602   0.531   7.239   0.636  0.2252 -0.2270 -0.4359
 4803SOL    HW115603   0.588   7.166   0.661  1.8150  0.7765 -0.9755
 4803SOL    HW215604   0.529   7.235   0.540 -2.5266 -1.6041 -0.4146
 4804SOL     OW15605   7.027   1.809   6.569 -0.3653  0.3188  0.1381
 4804SOL    HW115606   7.096   1.766   6.519  0.5033 -0.9942  2.2924
 4804SOL    HW215607   6.961   1.740   6.582 -0.9487  0.8679  0.1288
 4805SOL     OW15608   7.884   0.077   1.567 -0.3017 -0.2007 -0.4521
 4805SOL    HW115609   7.950   0.146   1.576 -0.3447 -0.0313 -1.3511
 4805SOL    HW215610   7.856   0.083   1.476 -1.7428 -0.1123 -0.0243
 4806SOL     OW15611   4.909   2.697   6.524 -0.0767 -0.4901  0.6932
 4806SOL    HW115612   4.818   2.690   6.550  0.4088  0.9327  3.0499
 4806SOL    HW215613   4.944   2.608   6.532 -1.5329 -1.3931 -1.7944
 4807SOL     OW15614   2.655   1.675   1.273  0.4403  0.0283  0.0707
 4807SOL    HW115615   2.724   1.697   1.336  2.2388 -1.2735 -1.3448
 4807SOL    HW215616   2.657   1.580   1.268  0.7145  0.1058 -2.3049
 4808SOL     OW15617   7.965   0.994   5.919  0.3506  0.5065  1.0897
 4808SOL    HW115618   7.968   1.082   5.881  1.1486  0.4738  1.0626
 4808SOL    HW215619   8.057   0.972   5.937  0.0869  0.0309  1.9140
 4809SOL     OW15620   7.024   7.560   5.149  0.1809 -0.2932 -0.5243
 4809SOL    HW115621   6.990   7.647   5.125  0.1134 -0.0582  0.3736
 4809SOL    HW215622   7.067   7.575   5.234 -0.2625 -1.2380 -0.1229
 4810SOL     OW15623   8.013   6.696   7.732  0.0288  0.4679 -0.6463
 4810SOL    HW115624   8.054   6.777   7.764 -0.1076  0.4344 -0.3860
 4810SOL    HW215625   7.956   6.668   7.803  0.6175 -0.2485 -0.4367
 4811SOL     OW15626   0.947   2.472   1.478 -0.0729  0.0177 -0.2535
 4811SOL    HW115627   0.887   2.399   1.458  1.0839 -1.5344  1.5940
 4811SOL    HW215628   0.890   2.544   1.503 -1.2599 -1.5726  1.9741
 4812SOL     OW15629   2.462   1.769   6.508  0.0515  0.8695  0.7932
 4812SOL    HW115630   2.527   1.741   6.444 -1.7306  0.9579 -1.1667
 4812SOL    HW215631   2.422   1.847   6.469 -1.5726  0.5178  1.6556
 4813SOL     OW15632   2.682   8.356   3.363  0.0239  0.1375 -0.3311
 4813SOL    HW115633   2.746   8.303   3.411 -0.3924  0.1496  0.2541
 4813SOL    HW215634   2.599   8.313   3.380 -0.2445  0.6651 -0.2971
 4814SOL     OW15635   2.478   6.219   0.947  0.0614 -0.1755 -0.5545
 4814SOL    HW115636   2.451   6.309   0.928 -2.9151 -0.3424  2.0483
 4814SOL    HW215637   2.412   6.164   0.904  1.5426 -1.1648 -1.6666
 4815SOL     OW15638   2.359   1.143   0.598 -0.5390  0.2433  0.5580
 4815SOL    HW115639   2.407   1.078   0.546 -0.2431  0.6306  0.3409
 4815SOL    HW215640   2.273   1.103   0.612 -0.3568 -0.1985  0.4339
 4816SOL     OW15641   1.248   3.665   8.368  0.0759 -0.3776  0.0594
 4816SOL    HW115642   1.178   3.705   8.316  2.2026  2.8996 -0.5742
 4816SOL    HW215643   1.310   3.630   8.304  1.5253  1.5248  0.3327
 4817SOL     OW15644   4.914   4.651   2.660 -0.0174  0.1962 -0.0212
 4817SOL    HW115645   4.881   4.708   2.729 -0.6458 -0.2341  0.0460
 4817SOL    HW215646   4.945   4.711   2.592  0.4326  0.6185  0.5555
 4818SOL     OW15647   0.497   3.246   7.492 -0.0712  0.3239  0.2586
 4818SOL    HW115648   0.412   3.234   7.450  0.2225 -0.8488 -0.0330
 4818SOL    HW215649   0.552   3.175   7.458  0.6146  0.2252  1.4899
 4819SOL     OW15650   3.509   6.195   2.473 -0.2919  0.6731  0.4879
 4819SOL    HW115651   3.464   6.166   2.552  0.4936  0.2574  0.7816
 4819SOL    HW215652   3.562   6.120   2.446 -0.8809  0.6484 -0.6845
 4820SOL     OW15653   3.386   4.118   2.984  0.1782  0.1901  0.5797
 4820SOL    HW115654   3.442   4.057   3.032  0.4374  1.0249  1.3632
 4820SOL    HW215655   3.297   4.091   3.004  0.2896  0.2793  1.2017
 4821SOL     OW15656   4.888   1.172   8.355 -0.0575 -0.2399 -0.5191
 4821SOL    HW115657   4.870   1.263   8.379 -0.7305 -0.4225 -0.2980
 4821SOL    HW215658   4.816   1.149   8.295 -0.7037 -1.0620  0.5389
 4822SOL     OW15659   7.845   7.629   3.386 -0.2816 -0.3705  0.0631
 4822SOL    HW115660   7.862   7.720   3.360 -1.3244 -0.8469 -2.5681
 4822SOL    HW215661   7.772   7.635   3.447  0.2817  0.6064  0.6745
 4823SOL     OW15662   2.565   3.296   8.492  0.3098 -0.0103 -0.4719
 4823SOL    HW115663   2.524   3.378   8.467 -0.5231 -0.0674  0.6531
 4823SOL    HW215664   2.654   3.303   8.458  1.0542  2.4097  1.6637
 4824SOL     OW15665   8.104   7.281   3.265  0.1485  0.2174 -0.3450
 4824SOL    HW115666   8.030   7.331   3.230 -2.3215 -1.1637  2.4180
 4824SOL    HW215667   8.067   7.196   3.288  2.0809  0.0745  2.9019
 4825SOL     OW15668   6.985   7.190   3.402 -0.3775  0.1709 -0.4048
 4825SOL    HW115669   6.960   7.281   3.387 -0.3063  0.4307  0.9592
 4825SOL    HW215670   6.927   7.139   3.346 -1.3170  0.9796 -0.1788
 4826SOL     OW15671   2.509   5.878   5.534  0.0980  0.0451  0.1151
 4826SOL    HW115672   2.535   5.960   5.493  0.5093  1.0892  2.3201
 4826SOL    HW215673   2.416   5.869   5.513  0.0387  1.0933 -0.1344
 4827SOL     OW15674   2.146   3.520   7.951  0.0662 -0.1647  0.0745
 4827SOL    HW115675   2.116   3.434   7.922  2.3311 -0.7126 -0.8548
 4827SOL    HW215676   2.241   3.518   7.940  0.4419  1.6876  2.1623
 4828SOL     OW15677   7.347   5.021   2.482 -0.5627  0.0826 -0.5164
 4828SOL    HW115678   7.417   4.995   2.542 -0.2783 -1.4770 -1.4721
 4828SOL    HW215679   7.325   5.111   2.508  3.4074  1.5929 -1.6806
 4829SOL     OW15680   3.094   1.469   8.045  0.4719 -0.6228  0.3537
 4829SOL    HW115681   3.140   1.527   8.104  1.7506 -0.7856 -0.4519
 4829SOL    HW215682   3.030   1.525   8.001 -0.5635 -0.5242  1.9219
 4830SOL     OW15683   4.542   4.494   6.151 -0.4321 -0.7998  0.4518
 4830SOL    HW115684   4.552   4.407   6.112 -2.1930  0.2723 -2.7523
 4830SOL    HW215685   4.455   4.493   6.190 -0.6447 -0.3582 -0.0006
 4831SOL     OW15686   3.517   6.111   4.517  0.8715  0.2051  0.6699
 4831SOL    HW115687   3.527   6.108   4.422  2.2531 -0.5826  0.8126
 4831SOL    HW215688   3.450   6.045   4.536  0.2387  0.7008  0.2265
 4832SOL     OW15689   7.531   1.638   7.475 -0.2237  0.0973 -0.4561
 4832SOL    HW115690   7.564   1.672   7.558 -1.0598 -0.2353  0.0248
 4832SOL    HW215691   7.563   1.699   7.409  1.2492 -0.1547 -0.0111
 4833SOL     OW15692   0.855   3.421   2.975  0.2608 -0.3118 -0.2681
 4833SOL    HW115693   0.773   3.373   2.980  0.2275 -0.2279  0.0131
 4833SOL    HW215694   0.839   3.490   2.910 -0.5787  1.0089  1.2740
 4834SOL     OW15695   3.003   5.754   5.273  0.0679 -0.2674  0.2133
 4834SOL    HW115696   3.033   5.680   5.326  0.1978  0.5428  1.2971
 4834SOL    HW215697   2.960   5.812   5.335 -0.7451  0.1995 -0.7678
 4835SOL     OW15698   2.929   5.271   5.987  0.4384 -0.6847  0.6194
 4835SOL    HW115699   2.872   5.251   5.913  2.5894 -2.1957 -0.7501
 4835SOL    HW215700   2.911   5.202   6.052  0.2870 -0.8125  0.4393
 4836SOL     OW15701   3.130   7.763   8.440 -0.0440  0.6806  0.2191
 4836SOL    HW115702   3.182   7.822   8.385 -0.6409  0.0073 -1.1186
 4836SOL    HW215703   3.041   7.773   8.407 -0.1787 -0.8547  0.0606
 4837SOL     OW15704   0.068   8.384   5.778  0.1391 -0.4965  0.0552
 4837SOL    HW115705   0.041   8.428   5.698 -0.4276 -2.1029 -0.6809
 4837SOL    HW215706   0.083   8.293   5.752  1.2476 -0.7650  1.5070
 4838SOL     OW15707   0.259   7.686   4.489 -0.4888  0.1148 -0.1143
 4838SOL    HW115708   0.348   7.659   4.464 -0.8603 -1.8513  0.4800
 4838SOL    HW215709   0.272   7.767   4.538  1.2113 -0.9012  1.2800
 4839SOL     OW15710   4.849   7.401   5.990 -0.7513  0.1497 -0.6342
 4839SOL    HW115711   4.916   7.334   6.003 -2.2082 -0.9728  1.8095
 4839SOL    HW215712   4.797   7.399   6.071 -1.6135  3.4120 -0.9593
 4840SOL     OW15713   0.660   8.215   5.814 -0.2416  0.8500 -0.2604
 4840SOL    HW115714   0.679   8.178   5.900 -0.1603  0.4670 -0.4405
 4840SOL    HW215715   0.595   8.156   5.776 -0.8295  1.4226 -0.1731
 4841SOL     OW15716   4.441   2.544   1.371  0.2915  0.2021 -0.2780
 4841SOL    HW115717   4.428   2.517   1.280 -1.7326  0.5364 -0.1160
 4841SOL    HW215718   4.368   2.505   1.419  0.4126  1.3870  0.9262
 4842SOL     OW15719   0.563   6.554   2.976  0.1874 -0.4109 -0.3021
 4842SOL    HW115720   0.583   6.643   2.948  0.0319  0.8226  3.0199
 4842SOL    HW215721   0.618   6.540   3.054  0.9028 -3.6100 -1.2248
 4843SOL     OW15722   5.960   2.851   6.914 -0.2995 -0.0474  0.1513
 4843SOL    HW115723   5.918   2.937   6.915  0.1253  0.1639  0.7025
 4843SOL    HW215724   5.961   2.824   7.006  0.2539 -0.3017  0.0758
 4844SOL     OW15725   5.676   1.958   1.120 -0.5776  0.2546  0.0610
 4844SOL    HW115726   5.605   1.943   1.183  1.5322 -1.4480  2.1666
 4844SOL    HW215727   5.724   1.876   1.117  2.3515  1.8335  0.0720
 4845SOL     OW15728   2.994   0.521   3.799 -0.1883 -0.3196  0.1666
 4845SOL    HW115729   2.945   0.603   3.798 -0.2752 -0.3688  0.3523
 4845SOL    HW215730   2.948   0.466   3.863  0.0849 -0.3820  0.3101
 4846SOL     OW15731   5.085   6.161   4.868  0.1585  0.0037  0.2297
 4846SOL    HW115732   5.062   6.253   4.875  3.2295  0.8902  0.3315
 4846SOL    HW215733   5.038   6.119   4.940 -3.0773  0.9743 -1.1558
 4847SOL     OW15734   2.436   7.712   2.550  0.2478 -0.0089  0.0160
 4847SOL    HW115735   2.439   7.619   2.526 -1.1854 -0.4920  1.5190
 4847SOL    HW215736   2.344   7.729   2.570  0.6228  1.5178  0.5861
 4848SOL     OW15737   3.828   6.382   0.586  0.3360  0.3341  0.3638
 4848SOL    HW115738   3.848   6.288   0.588 -1.3531 -0.0413  1.5663
 4848SOL    HW215739   3.909   6.423   0.555  1.4419 -1.4281  0.7833
 4849SOL     OW15740   5.093   7.874   1.464 -0.9245 -0.1598  0.2809
 4849SOL    HW115741   5.057   7.876   1.375 -1.6646 -2.9817  0.4340
 4849SOL    HW215742   5.044   7.805   1.508  0.9842 -0.3771  2.2024
 4850SOL     OW15743   4.260   6.197   1.478  0.4032 -0.3428 -0.2974
 4850SOL    HW115744   4.333   6.135   1.480 -0.5803 -1.5619 -0.6579
 4850SOL    HW215745   4.212   6.180   1.560  1.0950  1.1955  0.4551
 4851SOL     OW15746   3.339   7.134   4.281 -0.2511  0.3290 -0.6495
 4851SOL    HW115747   3.333   7.169   4.193  2.0147  1.7524 -0.3249
 4851SOL    HW215748   3.425   7.092   4.284 -0.1704  0.5518  0.9609
 4852SOL     OW15749   4.767   1.307   1.748  1.0598  0.4844 -0.0928
 4852SOL    HW115750   4.826   1.320   1.822  0.8623 -0.0085  0.1535
 4852SOL    HW215751   4.825   1.302   1.672  1.3443 -0.0999  0.1627
 4853SOL     OW15752   3.436   6.736   3.221  0.0285  0.3505  0.0031
 4853SOL    HW115753   3.529   6.755   3.233 -0.6009  3.0468  1.3354
 4853SOL    HW215754   3.426   6.730   3.126  1.7313 -1.3418 -0.1462
 4854SOL     OW15755   7.669   6.016   0.440 -0.2095  0.4961  0.5303
 4854SOL    HW115756   7.590   6.035   0.390  0.3021 -1.7038 -1.2770
 4854SOL    HW215757   7.651   6.049   0.528 -3.4053 -0.5762  0.3752
 4855SOL     OW15758   0.924   1.241   0.457  0.4224 -0.3795 -0.7113
 4855SOL    HW115759   0.908   1.334   0.438 -0.0581 -0.2524  0.2334
 4855SOL    HW215760   0.978   1.211   0.385 -0.6753  0.2573 -1.8445
 4856SOL     OW15761   8.071   7.143   7.907  0.0517 -0.5597  0.0272
 4856SOL    HW115762   8.165   7.155   7.890  0.1526 -1.7415 -0.3079
 4856SOL    HW215763   8.032   7.131   7.821 -0.6942  1.5599  0.0019
 4857SOL     OW15764   5.019   4.884   1.279 -0.8886 -0.0939 -0.3286
 4857SOL    HW115765   4.964   4.928   1.215 -0.8665  1.3025  0.5645
 4857SOL    HW215766   5.109   4.903   1.251 -0.8415  2.0938  1.0392
 4858SOL     OW15767   0.224   0.846   2.990 -0.1596 -0.1044 -0.2889
 4858SOL    HW115768   0.159   0.781   2.961  0.3054  0.0244 -1.7128
 4858SOL    HW215769   0.258   0.810   3.071 -0.8075 -1.0251 -0.3947
 4859SOL     OW15770   2.357   3.124   7.794 -0.0916 -0.2454 -0.8203
 4859SOL    HW115771   2.426   3.188   7.779  0.3702 -0.9666 -1.8785
 4859SOL    HW215772   2.339   3.087   7.708 -0.3057 -1.5779 -0.2387
 4860SOL     OW15773   1.957   0.010   5.722  0.3746  0.0196  0.4628
 4860SOL    HW115774   1.960   0.002   5.627 -3.8934 -2.8849  0.3120
 4860SOL    HW215775   1.918   0.096   5.738  0.7890  0.3797 -0.3830
 4861SOL     OW15776   6.168   3.841   3.650 -0.1347  0.0118 -0.0497
 4861SOL    HW115777   6.221   3.831   3.729  1.2616  0.7168 -0.8546
 4861SOL    HW215778   6.078   3.830   3.680  0.3520  0.3403  1.6499
 4862SOL     OW15779   6.840   0.045   5.008 -0.0069 -0.0489  0.2016
 4862SOL    HW115780   6.934   0.061   5.022 -0.3991  2.1233  0.7514
 4862SOL    HW215781   6.825  -0.043   5.043  1.4283  0.4463  2.2212
 4863SOL     OW15782   5.980   0.253   1.199  0.2649 -0.1300  0.3890
 4863SOL    HW115783   6.070   0.280   1.180 -0.0957  1.2837  0.5662
 4863SOL    HW215784   5.980   0.158   1.187  1.1027  0.1364 -2.4864
 4864SOL     OW15785   2.514   7.886   0.997  0.1179  0.0324  0.0593
 4864SOL    HW115786   2.577   7.874   0.926  1.0889  1.9065  0.5230
 4864SOL    HW215787   2.441   7.934   0.958  0.3028  0.3804  0.1300
 4865SOL     OW15788   2.323   3.931   6.505  0.1375  0.2071 -0.3366
 4865SOL    HW115789   2.235   3.900   6.525 -0.4058  1.3687 -0.7902
 4865SOL    HW215790   2.363   3.947   6.590 -0.2587  0.1230 -0.1314
 4866SOL     OW15791   1.347   8.567   6.772 -0.5304  0.4991 -0.2131
 4866SOL    HW115792   1.430   8.561   6.725 -0.1948 -1.7162  0.5377
 4866SOL    HW215793   1.370   8.605   6.857  0.0412 -1.3839  0.5346
 4867SOL     OW15794   5.355   8.343   4.883  0.0174  0.0647 -0.2056
 4867SOL    HW115795   5.363   8.252   4.854 -1.8104 -0.3564  0.4285
 4867SOL    HW215796   5.264   8.350   4.913  0.8766  1.2897  2.4486
 4868SOL     OW15797   5.581   1.805   3.885  0.3106 -0.0779 -0.0094
 4868SOL    HW115798   5.584   1.827   3.978  2.6412 -1.1429  0.2295
 4868SOL    HW215799   5.542   1.718   3.882  0.0704  0.0317 -0.0370
 4869SOL     OW15800   3.590   2.277   1.989  0.1407  0.5044 -0.2547
 4869SOL    HW115801   3.585   2.268   2.084 -0.8778 -1.7685 -0.4501
 4869SOL    HW215802   3.499   2.290   1.961  0.5275  2.0741 -0.8792
 4870SOL     OW15803   5.300   6.789   0.532 -0.1011  0.1648 -0.0957
 4870SOL    HW115804   5.325   6.877   0.501 -0.3575  0.0408 -0.6651
 4870SOL    HW215805   5.204   6.792   0.537 -0.0557  0.2484  0.9050
 4871SOL     OW15806   5.038   2.152   0.667  0.1453 -0.3565  0.8962
 4871SOL    HW115807   5.134   2.150   0.669  0.2495  0.6343 -1.0809
 4871SOL    HW215808   5.011   2.067   0.700  1.7256 -0.9548  0.7227
 4872SOL     OW15809   4.359   0.037   2.106 -0.5768 -0.1863  0.3313
 4872SOL    HW115810   4.391   0.126   2.097  0.5840 -0.6955 -0.7727
 4872SOL    HW215811   4.399  -0.012   2.034 -2.9837 -1.1217 -0.4990
 4873SOL     OW15812   1.395   0.876   1.484 -0.3383 -0.5990 -0.1670
 4873SOL    HW115813   1.347   0.929   1.421 -0.7198 -2.1856 -1.2760
 4873SOL    HW215814   1.447   0.815   1.430  2.0233  0.2466  0.9959
 4874SOL     OW15815   2.298   0.558   4.796 -0.2739 -0.0918  0.1078
 4874SOL    HW115816   2.230   0.494   4.773 -0.7884  0.3047  0.4920
 4874SOL    HW215817   2.379   0.508   4.795 -0.8455 -1.1894  2.0484
 4875SOL     OW15818   3.432   5.362   3.424  0.1386 -0.1002  0.2775
 4875SOL    HW115819   3.444   5.457   3.423 -1.6574  0.1704  0.6746
 4875SOL    HW215820   3.368   5.345   3.355  0.8651 -1.1150 -0.1800
 4876SOL     OW15821   4.439   1.563   1.041  0.2010 -0.2703  0.3292
 4876SOL    HW115822   4.474   1.529   1.123 -0.8394 -1.5376  0.2864
 4876SOL    HW215823   4.504   1.539   0.975  0.6834  0.0899  0.6692
 4877SOL     OW15824   7.139   5.624   1.651  0.3060 -0.1074 -0.2029
 4877SOL    HW115825   7.056   5.622   1.603  0.4467 -2.1429 -0.4551
 4877SOL    HW215826   7.175   5.711   1.634 -0.8449  0.1041 -1.7249
 4878SOL     OW15827   8.131   5.784   1.242 -0.0378  0.5904  0.3831
 4878SOL    HW115828   8.156   5.724   1.312 -1.7293  2.1849  2.5319
 4878SOL    HW215829   8.191   5.857   1.250 -0.7389  1.1402  0.7343
 4879SOL     OW15830   1.277   3.505   5.754 -0.4313 -0.1682  0.8764
 4879SOL    HW115831   1.349   3.487   5.693 -0.9770 -0.5078  0.3267
 4879SOL    HW215832   1.300   3.589   5.793  0.3334 -0.3342  0.8037
 4880SOL     OW15833   7.388   2.622   1.675 -0.4139 -0.2231 -0.7118
 4880SOL    HW115834   7.424   2.710   1.667  0.7255 -0.6774 -0.8349
 4880SOL    HW215835   7.331   2.626   1.751  2.1657 -0.1578  1.3537
 4881SOL     OW15836   6.617   3.096   0.660 -0.1433  0.3710 -0.0922
 4881SOL    HW115837   6.547   3.159   0.673  0.0066  0.7553 -1.0271
 4881SOL    HW215838   6.683   3.144   0.609  0.2198 -0.3755 -0.3392
 4882SOL     OW15839   5.845   7.056   7.320  0.0797 -0.1167 -0.2206
 4882SOL    HW115840   5.934   7.055   7.285 -0.3298  0.2519 -1.3446
 4882SOL    HW215841   5.824   7.149   7.328 -0.2378 -0.2020 -0.0602
 4883SOL     OW15842   7.876   3.574   6.035  0.1009  0.3037  0.0727
 4883SOL    HW115843   7.834   3.540   5.956  1.7859 -2.0304  0.0868
 4883SOL    HW215844   7.854   3.511   6.103  2.8440 -0.5930  0.2475
 4884SOL     OW15845   8.036   1.791   0.431  0.5387 -0.3523  0.6630
 4884SOL    HW115846   8.018   1.811   0.523 -0.2778 -0.5494  0.5569
 4884SOL    HW215847   7.970   1.725   0.408 -0.9196  1.5106 -0.7616
 4885SOL     OW15848   4.938   0.188   3.529 -0.2074  0.3930  0.1731
 4885SOL    HW115849   4.939   0.251   3.456  1.1970  0.4413  0.2156
 4885SOL    HW215850   4.859   0.212   3.579 -0.2429  1.4796 -0.3598
 4886SOL     OW15851   7.535   7.778   6.840  0.2723 -0.0142 -0.4156
 4886SOL    HW115852   7.494   7.864   6.843 -2.4353 -1.2033  0.6281
 4886SOL    HW215853   7.581   7.770   6.924 -0.6201 -0.0529  0.0835
 4887SOL     OW15854   6.424   1.392   2.954 -0.0249  0.0556  0.3671
 4887SOL    HW115855   6.344   1.339   2.960  0.0322  0.1025  2.9899
 4887SOL    HW215856   6.393   1.483   2.953 -0.0225  0.0568 -0.4812
 4888SOL     OW15857   2.007   6.544   3.074  0.5520 -0.0834  0.7164
 4888SOL    HW115858   2.028   6.457   3.107  1.7288 -0.1210 -0.0570
 4888SOL    HW215859   2.061   6.553   2.995  0.8303  1.5215  1.0505
 4889SOL     OW15860   8.543   0.297   5.646 -0.0545 -0.0192 -0.0081
 4889SOL    HW115861   8.623   0.267   5.601  0.3094 -1.1997  1.3415
 4889SOL    HW215862   8.571   0.374   5.695 -0.3445  0.9940 -1.3554
 4890SOL     OW15863   3.358   3.841   8.040 -0.0915  0.1908  0.1098
 4890SOL    HW115864   3.286   3.795   7.995  0.9576 -1.2849 -0.1309
 4890SOL    HW215865   3.401   3.891   7.971 -0.4616  0.5342  0.1228
 4891SOL     OW15866   3.102   7.517   4.993 -0.3807  0.5888  0.2182
 4891SOL    HW115867   3.042   7.592   5.001 -2.6103 -0.7690 -2.0603
 4891SOL    HW215868   3.070   7.455   5.058 -2.3530 -0.5681 -1.6991
 4892SOL     OW15869   3.324   0.412   3.061  0.1000  0.0820  0.2368
 4892SOL    HW115870   3.355   0.379   2.977  1.9456 -0.8771  1.2196
 4892SOL    HW215871   3.313   0.506   3.048 -4.1107 -0.5313 -2.2975
 4893SOL     OW15872   8.125   1.695   5.104  0.0397 -0.1715  0.0731
 4893SOL    HW115873   8.189   1.719   5.037  1.6368  0.2346  1.6439
 4893SOL    HW215874   8.077   1.776   5.121  0.7057  0.1488  0.4891
 4894SOL     OW15875   6.075   7.042   0.944  0.1600 -0.3461 -0.4073
 4894SOL    HW115876   6.051   6.951   0.960 -0.9645 -0.2756 -1.5909
 4894SOL    HW215877   6.050   7.059   0.853  1.8739  0.6748 -0.7324
 4895SOL     OW15878   2.012   0.436   4.689  0.2132  0.0674 -0.3616
 4895SOL    HW115879   1.957   0.414   4.764 -0.0766  1.3773 -0.1742
 4895SOL    HW215880   1.973   0.515   4.652  1.6692  0.7659 -0.5102
 4896SOL     OW15881   1.454   7.268   7.120 -0.9088 -0.5699 -0.0628
 4896SOL    HW115882   1.460   7.183   7.076 -0.6360 -0.0942 -0.9615
 4896SOL    HW215883   1.426   7.246   7.209  1.2354 -1.7849  0.3843
 4897SOL     OW15884   2.809   4.784   3.651  0.0661 -0.3299  0.3499
 4897SOL    HW115885   2.859   4.708   3.681 -0.4161 -1.2777 -1.1141
 4897SOL    HW215886   2.721   4.750   3.634 -0.0917  0.4851 -0.5742
 4898SOL     OW15887   5.378   8.372   6.174 -0.2217  0.4948 -0.0054
 4898SOL    HW115888   5.456   8.368   6.231  0.8781  1.1964 -1.4065
 4898SOL    HW215889   5.413   8.373   6.085 -1.9546 -2.9360 -0.8976
 4899SOL     OW15890   0.684   0.964   3.321  0.2288  0.5746 -0.0639
 4899SOL    HW115891   0.696   0.927   3.233  1.1495  0.2489  0.1853
 4899SOL    HW215892   0.589   0.968   3.332  0.1012  0.2780 -0.9323
 4900SOL     OW15893   6.753   2.409   4.054  0.3234 -0.7336 -0.1407
 4900SOL    HW115894   6.756   2.369   3.967 -0.4029 -0.6755 -0.2012
 4900SOL    HW215895   6.779   2.500   4.040 -0.7684 -0.4572 -0.4737
 4901SOL     OW15896   7.124   7.449   3.203  0.5806  0.5607  0.1555
 4901SOL    HW115897   7.141   7.515   3.269 -0.2604  0.9864 -0.0394
 4901SOL    HW215898   7.198   7.389   3.209  0.6890  0.7870  1.2374
 4902SOL     OW15899   7.202   2.032   2.281  0.3111 -0.1543  0.7295
 4902SOL    HW115900   7.179   2.079   2.361  1.3737 -2.1602  2.3094
 4902SOL    HW215901   7.257   1.959   2.310  2.0585 -0.0982 -2.0023
 4903SOL     OW15902   1.103   7.142   6.868  0.0367 -0.3290 -0.2407
 4903SOL    HW115903   1.105   7.236   6.849 -0.7393 -0.3035 -0.2141
 4903SOL    HW215904   1.110   7.137   6.963  3.9525 -0.4575 -0.3423
 4904SOL     OW15905   6.782   0.298   5.645 -0.5268  0.1862 -0.1110
 4904SOL    HW115906   6.700   0.276   5.688 -1.0410  2.2202  0.0516
 4904SOL    HW215907   6.768   0.276   5.553 -0.8567 -0.4492  0.0839
 4905SOL     OW15908   5.714   4.956   6.043 -0.2385 -0.3124 -0.3173
 4905SOL    HW115909   5.787   5.003   6.083  0.0752 -0.7978 -0.3094
 4905SOL    HW215910   5.643   4.965   6.106 -0.4911  0.9740 -0.7525
 4906SOL     OW15911   5.269   3.292   5.707  0.3533 -0.4248 -0.1355
 4906SOL    HW115912   5.239   3.352   5.638  1.6126 -0.0478 -0.3703
 4906SOL    HW215913   5.241   3.335   5.789 -1.0965 -0.8474 -0.3813
 4907SOL     OW15914   5.277   7.446   4.835  0.1440  0.3947 -0.3253
 4907SOL    HW115915   5.200   7.409   4.794  0.7874 -0.6813 -0.5998
 4907SOL    HW215916   5.247   7.529   4.873 -1.3323 -0.4177  0.3468
 4908SOL     OW15917   6.044   3.890   0.155  0.3490  0.5489 -0.0641
 4908SOL    HW115918   6.107   3.821   0.178 -1.1636 -1.2663 -1.0497
 4908SOL    HW215919   6.012   3.922   0.240  1.8782  0.8511  0.4284
 4909SOL     OW15920   2.497   7.610   0.059 -0.3664  0.3806 -0.4359
 4909SOL    HW115921   2.405   7.634   0.049  0.0402  1.5830 -1.5119
 4909SOL    HW215922   2.506   7.525   0.015 -1.3615 -0.8031  1.4972
 4910SOL     OW15923   2.186   0.608   6.429 -0.0573  0.1023 -0.1841
 4910SOL    HW115924   2.218   0.523   6.399 -0.7030 -0.3984  0.4992
 4910SOL    HW215925   2.231   0.672   6.374 -0.4469 -0.7264 -1.5094
 4911SOL     OW15926   3.213   4.923   5.195  0.2313 -0.2621 -0.4519
 4911SOL    HW115927   3.157   4.850   5.168 -1.0416 -0.4732  2.3788
 4911SOL    HW215928   3.163   5.001   5.175  0.1257 -0.3192 -0.4106
 4912SOL     OW15929   2.578   2.295   4.048 -0.2816 -0.8200  0.8757
 4912SOL    HW115930   2.542   2.368   3.998  2.4175 -1.1964 -1.9404
 4912SOL    HW215931   2.654   2.332   4.093 -1.3767 -1.0167  3.0085
 4913SOL     OW15932   1.387   1.570   7.991 -0.2842 -0.2299  0.8226
 4913SOL    HW115933   1.398   1.540   7.900  2.4356  0.3651  0.8874
 4913SOL    HW215934   1.418   1.497   8.044  0.8804  0.4700  1.1453
 4914SOL     OW15935   1.000   7.316   2.789  0.1118 -0.2139  0.1072
 4914SOL    HW115936   0.980   7.345   2.878  0.7749 -0.9831  0.5156
 4914SOL    HW215937   1.049   7.234   2.800 -1.2515 -1.2354 -1.0028
 4915SOL     OW15938   0.535   6.566   6.256 -0.2555 -0.3907 -0.2659
 4915SOL    HW115939   0.491   6.542   6.175  0.2786  0.7559 -0.9289
 4915SOL    HW215940   0.619   6.520   6.253  0.0208  0.1215 -0.6787
 4916SOL     OW15941   6.348   4.637   4.134  0.4718  0.1697 -0.2352
 4916SOL    HW115942   6.355   4.554   4.086  0.1286 -1.3778  2.2230
 4916SOL    HW215943   6.382   4.617   4.221 -0.0264  2.5292  0.5691
 4917SOL     OW15944   0.672   2.269   3.432 -0.7176 -0.0287  0.4570
 4917SOL    HW115945   0.704   2.242   3.346 -1.6742 -0.1440  0.1203
 4917SOL    HW215946   0.729   2.341   3.458 -1.0184  0.6682 -0.7257
 4918SOL     OW15947   5.289   0.084   0.692  0.1189  0.2546 -0.1873
 4918SOL    HW115948   5.326   0.083   0.780  1.7499 -0.7554 -0.8419
 4918SOL    HW215949   5.202   0.045   0.702  1.0443 -1.7272  0.6933
 4919SOL     OW15950   5.872   6.836   3.925 -0.3604  0.0035 -0.3545
 4919SOL    HW115951   5.828   6.871   4.002  0.4812  0.8449 -0.2349
 4919SOL    HW215952   5.802   6.795   3.873 -1.0060 -0.1367  0.6026
 4920SOL     OW15953   4.671   4.126   3.782  0.1421 -0.2329 -0.4197
 4920SOL    HW115954   4.667   4.220   3.769  0.3275 -0.0537  0.6727
 4920SOL    HW215955   4.756   4.100   3.746  0.1323  0.0392 -0.6357
 4921SOL     OW15956   4.495   2.241   4.790 -0.6959 -0.1004 -0.2387
 4921SOL    HW115957   4.500   2.199   4.703  2.1282  0.6156 -0.5201
 4921SOL    HW215958   4.545   2.183   4.847  0.3596  1.1197  0.1166
 4922SOL     OW15959   6.689   0.646   1.855  0.9339  0.6047 -0.1223
 4922SOL    HW115960   6.635   0.721   1.828  1.9693  0.8586 -1.5693
 4922SOL    HW215961   6.689   0.651   1.951 -0.1816  1.6061 -0.1421
 4923SOL     OW15962   0.097   1.831   5.908 -0.2995 -0.1987 -0.1730
 4923SOL    HW115963   0.021   1.801   5.958  1.3079 -2.0182  1.3578
 4923SOL    HW215964   0.088   1.789   5.822 -0.2754 -1.6885  0.5284
 4924SOL     OW15965   7.510   1.979   3.926  0.6267 -0.2135 -0.1072
 4924SOL    HW115966   7.500   1.889   3.958  0.4094 -0.6438 -1.3232
 4924SOL    HW215967   7.535   2.029   4.004  0.9241 -1.3509  0.5668
 4925SOL     OW15968   3.473   3.907   4.647 -0.2798 -0.2696 -0.3394
 4925SOL    HW115969   3.489   3.992   4.688  3.3220 -0.7214 -0.5489
 4925SOL    HW215970   3.434   3.853   4.717 -1.2760  1.0900  0.1940
 4926SOL     OW15971   6.174   8.356   3.574 -0.9117 -0.4493 -0.3238
 4926SOL    HW115972   6.117   8.341   3.498 -1.2118  2.5370 -0.8221
 4926SOL    HW215973   6.113   8.375   3.645 -0.5857 -1.0052  0.1041
 4927SOL     OW15974   5.809   4.706   0.157 -0.3124  0.6266  0.3333
 4927SOL    HW115975   5.803   4.783   0.100 -0.7814  0.4861  0.1867
 4927SOL    HW215976   5.773   4.635   0.105 -0.8919  0.5240  0.8559
 4928SOL     OW15977   8.080   7.233   6.493 -0.3670  0.2117 -0.6822
 4928SOL    HW115978   8.078   7.149   6.448 -1.4425  0.6961 -1.6085
 4928SOL    HW215979   8.147   7.284   6.447 -1.5418  0.7467 -1.9045
 4929SOL     OW15980   7.458   5.355   3.522 -0.2209 -0.3658  0.2324
 4929SOL    HW115981   7.471   5.427   3.583 -0.1946  0.2645 -0.4986
 4929SOL    HW215982   7.464   5.276   3.576  1.2851  0.1107  0.7953
 4930SOL     OW15983   7.044   0.774   3.360 -0.2690 -0.4141 -0.6294
 4930SOL    HW115984   7.049   0.718   3.283  1.1509 -1.6328  0.2913
 4930SOL    HW215985   7.042   0.713   3.434 -0.4628  0.7275  0.3479
 4931SOL     OW15986   7.500   2.492   1.003 -0.2381 -0.7320  0.0563
 4931SOL    HW115987   7.539   2.514   0.918  0.1464  2.1459  0.8551
 4931SOL    HW215988   7.406   2.492   0.987 -0.1519 -0.9701 -0.5058
 4932SOL     OW15989   0.161   0.320   6.877 -0.3666 -0.3023 -0.6398
 4932SOL    HW115990   0.066   0.325   6.867 -0.1607  1.1325 -2.2442
 4932SOL    HW215991   0.190   0.263   6.807  0.0329  0.0637 -0.7786
 4933SOL     OW15992   7.491   6.831   4.427  0.4389  0.2630  0.2919
 4933SOL    HW115993   7.432   6.761   4.456  0.5598  0.1477  0.2605
 4933SOL    HW215994   7.534   6.860   4.508  0.3014  0.3822  0.3219
 4934SOL     OW15995   2.382   0.759   2.210 -0.5568  0.7666  0.0982
 4934SOL    HW115996   2.401   0.790   2.299  1.1847  0.6772 -0.2031
 4934SOL    HW215997   2.374   0.664   2.220  2.6323  0.3541 -0.2044
 4935SOL     OW15998   5.964   4.590   6.837 -0.5053 -0.0387 -0.9377
 4935SOL    HW115999   5.873   4.595   6.866 -0.7004  0.2355 -1.5768
 4935SOL    HW216000   5.959   4.570   6.743  0.0318  1.6573 -1.3686
 4936SOL     OW16001   8.577   8.275   6.037 -0.3529  0.5465  0.2688
 4936SOL    HW116002   8.658   8.312   6.003  0.6071 -0.2789  1.5623
 4936SOL    HW216003   8.512   8.294   5.969  1.4482 -1.1439 -2.1436
 4937SOL     OW16004   0.664   3.189   2.325  0.1871  0.5302  0.1610
 4937SOL    HW116005   0.663   3.279   2.293 -0.5506 -0.1602 -1.9793
 4937SOL    HW216006   0.574   3.174   2.356 -0.1314  0.1114 -0.9082
 4938SOL     OW16007   3.307   4.007   4.974 -0.0481  0.2269  0.2012
 4938SOL    HW116008   3.375   3.995   4.908  0.0359  0.7945  0.1813
 4938SOL    HW216009   3.349   3.980   5.056  0.0045 -0.0080  0.0984
 4939SOL     OW16010   3.296   6.789   1.751  0.1169 -0.2938  0.4358
 4939SOL    HW116011   3.252   6.803   1.667 -2.0009  2.5489  1.8804
 4939SOL    HW216012   3.352   6.866   1.763  2.2882 -1.7983  0.6443
 4940SOL     OW16013   6.706   4.423   1.361 -0.4646 -0.4430 -0.0135
 4940SOL    HW116014   6.641   4.493   1.365 -0.5351 -0.5699  1.1669
 4940SOL    HW216015   6.782   4.465   1.319 -1.5668 -0.5483 -2.2991
 4941SOL     OW16016   7.825   0.365   5.448  0.5513 -0.6298 -0.1187
 4941SOL    HW116017   7.807   0.285   5.398  0.6922 -1.7337  1.4982
 4941SOL    HW216018   7.910   0.350   5.489 -0.0622 -0.3134  1.3738
 4942SOL     OW16019   4.618   0.379   5.674  0.4094  0.2526 -0.2079
 4942SOL    HW116020   4.603   0.473   5.660  0.7061  0.2126 -0.8278
 4942SOL    HW216021   4.669   0.352   5.598  2.2798  0.0615  1.0737
 4943SOL     OW16022   0.288   7.349   2.865  0.8166  0.1897  0.2031
 4943SOL    HW116023   0.213   7.404   2.844 -0.2743 -1.2278  0.1932
 4943SOL    HW216024   0.312   7.374   2.954 -0.2367  0.0828  0.5356
 4944SOL     OW16025   4.871   0.786   6.933 -0.5100  0.1990  0.0021
 4944SOL    HW116026   4.787   0.740   6.923 -1.2102  1.3746  0.3095
 4944SOL    HW216027   4.921   0.762   6.855 -1.2475 -0.2706 -0.3340
 4945SOL     OW16028   8.287   4.557   2.859  0.4291  0.4243  0.4911
 4945SOL    HW116029   8.270   4.489   2.925 -0.9548  0.1649 -0.1109
 4945SOL    HW216030   8.337   4.623   2.907 -1.2081  0.6129  2.0533
 4946SOL     OW16031   2.597   6.015   1.419 -0.3103 -0.5312 -0.7020
 4946SOL    HW116032   2.508   6.048   1.428  0.1055  0.6850 -0.8923
 4946SOL    HW216033   2.634   6.065   1.346  0.8158 -0.3766 -0.0494
 4947SOL     OW16034   6.735   8.468   4.738 -0.2819  0.5811  0.1009
 4947SOL    HW116035   6.678   8.508   4.672 -1.5109  0.9503  1.3394
 4947SOL    HW216036   6.696   8.493   4.821  0.0508 -1.5312  0.9563
 4948SOL     OW16037   8.547   0.894   1.762 -0.2026  0.3586  0.4262
 4948SOL    HW116038   8.500   0.849   1.693  1.3636 -4.2349  1.9247
 4948SOL    HW216039   8.480   0.918   1.826 -1.1220 -0.8531 -0.0429
 4949SOL     OW16040   3.773   4.448   8.591 -0.0448  0.3268  0.5549
 4949SOL    HW116041   3.864   4.427   8.574 -0.5561 -2.8105  1.0377
 4949SOL    HW216042   3.724   4.378   8.547 -2.1246  0.9444  1.7654
 4950SOL     OW16043   3.139   3.295   8.350  0.1482 -0.8679 -0.7739
 4950SOL    HW116044   3.204   3.228   8.327 -0.6235 -1.7784 -0.3761
 4950SOL    HW216045   3.095   3.315   8.267  0.3531 -0.8853 -0.8879
 4951SOL     OW16046   0.519   4.541   4.970  0.6912 -0.0029  0.1685
 4951SOL    HW116047   0.473   4.622   4.993 -0.0044 -0.0991 -0.8070
 4951SOL    HW216048   0.473   4.509   4.893  2.3871 -0.1243 -0.8389
 4952SOL     OW16049   7.709   2.443   3.955  0.3426  0.0333 -0.0034
 4952SOL    HW116050   7.684   2.355   3.981  1.3479 -1.1246 -2.5872
 4952SOL    HW216051   7.632   2.497   3.976  0.4920 -0.9041  3.6593
 4953SOL     OW16052   0.352   5.486   5.613 -0.4104  0.2300  0.1471
 4953SOL    HW116053   0.360   5.392   5.597  0.4016  0.0765  1.3287
 4953SOL    HW216054   0.432   5.509   5.660 -1.2808  1.2282  1.1940
 4954SOL     OW16055   7.586   3.368   7.816 -0.0621  0.4359  0.1646
 4954SOL    HW116056   7.575   3.458   7.787 -1.1154  0.1486 -0.3516
 4954SOL    HW216057   7.590   3.317   7.736  1.6327  0.1135  0.4133
 4955SOL     OW16058   4.467   8.011   1.974  0.0716 -0.5994 -0.1322
 4955SOL    HW116059   4.495   7.948   1.907  0.5518 -2.3921  1.6422
 4955SOL    HW216060   4.376   7.987   1.992  0.3373 -0.9838  0.7333
 4956SOL     OW16061   6.928   3.325   5.512  0.1293 -0.2683  0.3729
 4956SOL    HW116062   7.015   3.343   5.548  0.5265 -0.1610 -0.6063
 4956SOL    HW216063   6.942   3.324   5.417 -0.4318 -2.7436  0.2532
 4957SOL     OW16064   1.918   6.794   2.573 -0.1628 -0.3559 -0.0436
 4957SOL    HW116065   1.954   6.829   2.491 -1.0789  1.8899  0.4463
 4957SOL    HW216066   1.827   6.776   2.553 -0.4130  0.2912  0.4806
 4958SOL     OW16067   5.303   3.824   5.823 -0.1218 -0.5230 -0.8130
 4958SOL    HW116068   5.258   3.812   5.740 -1.3592  0.0502 -0.2496
 4958SOL    HW216069   5.329   3.916   5.824 -0.7428 -0.3459 -0.2726
 4959SOL     OW16070   3.228   7.814   0.178  0.2817  0.0885 -0.1966
 4959SOL    HW116071   3.228   7.861   0.261 -1.1004  0.7845 -0.5481
 4959SOL    HW216072   3.135   7.803   0.157  0.5960  0.2134 -1.7903
 4960SOL     OW16073   0.690   5.418   5.518  0.4766 -0.2290 -0.3021
 4960SOL    HW116074   0.773   5.442   5.561  0.5078 -1.0266  0.0994
 4960SOL    HW216075   0.637   5.498   5.524  0.9546  0.0697  0.0759
 4961SOL     OW16076   4.618   1.517   8.574 -0.2467  0.2511 -0.0395
 4961SOL    HW116077   4.583   1.605   8.561 -1.1472  0.3425  2.4808
 4961SOL    HW216078   4.593   1.494   8.664  0.0023 -2.5705 -0.6041
 4962SOL     OW16079   8.444   6.219   6.449  0.0214 -0.0941 -0.1458
 4962SOL    HW116080   8.533   6.184   6.449  0.0913  0.0843 -0.7056
 4962SOL    HW216081   8.400   6.174   6.378 -0.5382 -0.6781  0.5636
 4963SOL     OW16082   8.600   7.559   1.728  0.2599  0.4484  0.1463
 4963SOL    HW116083   8.526   7.616   1.749  0.5562  1.0378 -0.3704
 4963SOL    HW216084   8.629   7.588   1.642 -0.7146 -1.6805 -0.9780
 4964SOL     OW16085   5.258   2.353   4.588  0.1230  0.1531  0.6394
 4964SOL    HW116086   5.291   2.265   4.569 -1.3947 -0.1848 -0.6614
 4964SOL    HW216087   5.165   2.341   4.605 -1.0390  1.8193 -3.2723
 4965SOL     OW16088   3.040   7.789   2.170  0.6230 -0.3368 -0.4205
 4965SOL    HW116089   3.060   7.710   2.220  0.4788  0.1653  0.4527
 4965SOL    HW216090   3.125   7.828   2.151  0.7090 -0.8166 -1.0657
 4966SOL     OW16091   0.485   6.729   7.944  0.6082  0.1641  0.1201
 4966SOL    HW116092   0.520   6.764   7.863  1.5193 -0.6810  0.1210
 4966SOL    HW216093   0.408   6.678   7.918  1.5848 -1.1017 -0.3976
 4967SOL     OW16094   1.684   4.196   0.762  0.0763 -0.4446  0.1157
 4967SOL    HW116095   1.747   4.176   0.693 -0.0455  1.2641 -0.5659
 4967SOL    HW216096   1.692   4.125   0.825  1.5869 -1.0451 -0.7101
 4968SOL     OW16097   1.856   6.202   7.949 -0.0435 -0.1266  0.2514
 4968SOL    HW116098   1.762   6.190   7.959 -0.1620  0.8580  0.4766
 4968SOL    HW216099   1.864   6.267   7.879  0.5146 -1.0496 -0.5584
 4969SOL     OW16100   4.819   0.999   3.602  0.4592 -0.0190  0.3601
 4969SOL    HW116101   4.904   1.005   3.644 -0.0158  1.0699  1.2109
 4969SOL    HW216102   4.829   1.049   3.520  0.6703  0.0134  0.4048
 4970SOL     OW16103   7.398   7.201   6.942  0.0476 -0.3345  0.4298
 4970SOL    HW116104   7.376   7.198   7.035 -2.2456  1.4366  0.0358
 4970SOL    HW216105   7.326   7.250   6.902  1.4164 -0.2768 -2.1592
 4971SOL     OW16106   2.480   6.162   6.272  0.3579  0.2795  0.2856
 4971SOL    HW116107   2.516   6.251   6.277  1.6272 -0.1505 -0.7295
 4971SOL    HW216108   2.512   6.128   6.189 -2.0392 -0.3297 -0.4396
 4972SOL     OW16109   0.447   8.032   0.281  0.0784  0.1811  0.4320
 4972SOL    HW116110   0.408   8.048   0.195 -2.5237 -2.2103  1.0158
 4972SOL    HW216111   0.408   8.098   0.338 -0.2253  0.1302  0.2832
 4973SOL     OW16112   4.825   2.481   5.296  0.4149 -0.1356 -0.0823
 4973SOL    HW116113   4.881   2.445   5.364 -1.4557 -2.5267  0.2916
 4973SOL    HW216114   4.871   2.460   5.214  0.5541 -1.2050  0.2556
 4974SOL     OW16115   6.648   6.463   3.512 -0.1787 -0.0542 -0.0606
 4974SOL    HW116116   6.559   6.497   3.512 -0.9541 -1.9396  0.1083
 4974SOL    HW216117   6.691   6.508   3.585 -1.3736 -0.0202  0.6455
 4975SOL     OW16118   2.038   3.948   4.256  0.3360 -0.3673 -0.2677
 4975SOL    HW116119   2.055   3.862   4.294  0.7237  0.1083  0.6531
 4975SOL    HW216120   2.063   3.938   4.164  2.4531 -0.6763  0.2766
 4976SOL     OW16121   7.683   4.380   2.588  0.4528 -0.1027  0.1707
 4976SOL    HW116122   7.601   4.392   2.539  1.0010 -0.8798 -0.9799
 4976SOL    HW216123   7.656   4.380   2.680 -0.9321 -0.9416 -0.2026
 4977SOL     OW16124   7.454   2.833   8.359 -0.4160 -0.6588 -0.2513
 4977SOL    HW116125   7.514   2.759   8.372  0.2470 -0.1105 -0.1535
 4977SOL    HW216126   7.510   2.910   8.361 -0.8572 -0.2439 -2.0823
 4978SOL     OW16127   1.830   3.284   0.718  0.2940 -0.2990 -0.3238
 4978SOL    HW116128   1.810   3.213   0.778 -0.1543  0.7368  0.7943
 4978SOL    HW216129   1.778   3.266   0.640 -0.5591 -0.6758  0.3229
 4979SOL     OW16130   5.424   4.435   5.099  0.4469  0.2990  0.1036
 4979SOL    HW116131   5.508   4.397   5.074  0.4562 -0.5616  1.3757
 4979SOL    HW216132   5.447   4.506   5.159  0.3614  1.6614 -1.3818
 4980SOL     OW16133   3.169   2.872   5.618 -0.0891 -0.1763 -0.0809
 4980SOL    HW116134   3.128   2.952   5.584 -1.8032 -0.6359  0.7512
 4980SOL    HW216135   3.095   2.816   5.641  1.0462 -2.7610 -2.2596
 4981SOL     OW16136   6.875   7.170   7.059 -0.4316  0.1405 -0.0372
 4981SOL    HW116137   6.916   7.166   6.973 -0.2651  0.2039  0.0371
 4981SOL    HW216138   6.830   7.087   7.069 -1.7180  0.7207 -0.8024
 4982SOL     OW16139   5.553   4.598   4.105 -0.8052  0.0511 -0.0815
 4982SOL    HW116140   5.493   4.545   4.157  0.6421 -0.8646  0.6868
 4982SOL    HW216141   5.530   4.578   4.014  0.1779 -2.4899  0.1720
 4983SOL     OW16142   8.206   4.278   4.212 -0.0970 -0.4006  0.1142
 4983SOL    HW116143   8.231   4.268   4.120  0.9146  0.7388  0.2401
 4983SOL    HW216144   8.133   4.339   4.210  0.8802  0.8072  0.1479
 4984SOL     OW16145   3.537   5.972   4.842  0.3554  0.1232 -0.1984
 4984SOL    HW116146   3.507   5.881   4.853  1.2951 -0.2917 -0.9183
 4984SOL    HW216147   3.496   6.019   4.915 -1.1825 -0.6039 -0.5537
 4985SOL     OW16148   0.583   4.101   6.005  0.3361  0.0602 -0.2374
 4985SOL    HW116149   0.514   4.072   5.945  0.5351 -1.2052  0.1027
 4985SOL    HW216150   0.536   4.125   6.085  0.3603 -3.3458  0.9693
 4986SOL     OW16151   1.409   2.016   0.165  0.1011  0.0157 -0.2294
 4986SOL    HW116152   1.454   2.010   0.249 -0.5261 -0.2891  0.0901
 4986SOL    HW216153   1.381   1.927   0.145 -0.9953  0.3024 -0.0574
 4987SOL     OW16154   8.060   3.507   3.574 -0.1582  0.1303 -0.0217
 4987SOL    HW116155   8.008   3.470   3.646  1.9957 -0.7334  1.1854
 4987SOL    HW216156   8.002   3.572   3.534 -2.5202 -1.4377  0.5815
 4988SOL     OW16157   0.293   0.013   6.422 -0.1948  0.2677 -0.4398
 4988SOL    HW116158   0.320  -0.048   6.491  0.0804  0.4694 -0.3629
 4988SOL    HW216159   0.348   0.090   6.437 -1.7002  1.2227  0.5378
 4989SOL     OW16160   5.659   4.373   2.585  0.3537  0.3596 -0.0186
 4989SOL    HW116161   5.634   4.421   2.664 -2.0971 -2.9981  1.4839
 4989SOL    HW216162   5.725   4.310   2.614  0.2423 -0.1707 -0.8592
 4990SOL     OW16163   3.515   3.070   1.629 -0.3444 -0.2502 -0.1617
 4990SOL    HW116164   3.585   3.004   1.622 -0.7941 -0.6758 -0.7135
 4990SOL    HW216165   3.561   3.154   1.620  0.1899 -0.4945  0.2232
 4991SOL     OW16166   5.479   3.632   4.160 -0.4899 -0.3124 -0.0382
 4991SOL    HW116167   5.407   3.693   4.175 -0.6036 -0.3792 -0.2988
 4991SOL    HW216168   5.444   3.547   4.185 -0.4212 -0.3084  0.0694
 4992SOL     OW16169   5.486   4.573   8.347 -0.3801  0.3858 -0.3211
 4992SOL    HW116170   5.441   4.531   8.420 -0.8813  1.2380 -0.1286
 4992SOL    HW216171   5.548   4.507   8.316  0.8371  0.4785  1.7481
 4993SOL     OW16172   3.429   7.745   4.152 -0.2799  0.3132 -0.0816
 4993SOL    HW116173   3.343   7.737   4.193  0.9959 -1.6332  2.5687
 4993SOL    HW216174   3.491   7.732   4.224  2.1999 -1.1775 -2.2812
 4994SOL     OW16175   1.179   7.581   0.761  0.1202  0.2627 -0.0366
 4994SOL    HW116176   1.174   7.644   0.688 -1.4190  0.2440  0.0133
 4994SOL    HW216177   1.139   7.501   0.726 -2.1454  0.7402  1.2667
 4995SOL     OW16178   7.341   4.548   7.715 -0.3260 -0.0788  0.0654
 4995SOL    HW116179   7.434   4.568   7.709 -0.1138 -1.0566 -0.0786
 4995SOL    HW216180   7.297   4.632   7.703  0.5133  0.2651 -0.6339
 4996SOL     OW16181   4.794   2.621   2.711  0.1935 -0.0245 -0.0754
 4996SOL    HW116182   4.794   2.675   2.790  0.4767  0.0488 -0.1228
 4996SOL    HW216183   4.882   2.583   2.709  0.1943 -0.0029 -0.3736
 4997SOL     OW16184   4.763   2.119   4.625  0.0464  0.4917 -0.1238
 4997SOL    HW116185   4.805   2.074   4.697 -0.4996  1.2040  0.6588
 4997SOL    HW216186   4.674   2.083   4.621 -0.3019  1.2814  0.3281
 4998SOL     OW16187   0.614   0.623   3.393 -0.3301 -0.0482 -0.5382
 4998SOL    HW116188   0.649   0.638   3.305  2.1569 -2.0265 -0.0346
 4998SOL    HW216189   0.612   0.710   3.433  2.0284  0.4947 -1.4071
 4999SOL     OW16190   3.242   2.268   0.881 -0.0792  0.4110  0.5955
 4999SOL    HW116191   3.231   2.202   0.950 -1.5089  0.8737  0.8409
 4999SOL    HW216192   3.255   2.216   0.801  1.4544 -0.1254  1.1513
 5000SOL     OW16193   4.125   6.210   7.646 -0.1197  0.0145 -0.1467
 5000SOL    HW116194   4.076   6.248   7.573  0.0114 -2.1213 -1.4634
 5000SOL    HW216195   4.118   6.274   7.717 -2.8851  0.8010 -1.0130
 5001SOL     OW16196   6.054   6.121   5.835  0.7193  0.1293  0.5854
 5001SOL    HW116197   5.975   6.105   5.785  0.7810  0.7496  0.2726
 5001SOL    HW216198   6.123   6.077   5.786  0.8768  1.2220 -0.2254
 5002SOL     OW16199   5.890   5.100   4.114  0.3245 -0.2130  0.0637
 5002SOL    HW116200   5.912   5.192   4.129  1.5597 -0.1878 -1.6499
 5002SOL    HW216201   5.957   5.068   4.054 -2.1740 -1.2328 -2.4025
 5003SOL     OW16202   2.677   5.402   2.256  0.3082 -0.2317 -0.4120
 5003SOL    HW116203   2.608   5.427   2.317 -0.0518  0.3297 -1.0373
 5003SOL    HW216204   2.744   5.363   2.311  0.9132  2.0975  0.6217
 5004SOL     OW16205   6.434   5.498   4.002 -0.0668 -0.1547  0.0433
 5004SOL    HW116206   6.405   5.407   4.000 -0.6514  0.0297 -0.0507
 5004SOL    HW216207   6.488   5.508   3.923  2.3071 -1.1550  1.4485
 5005SOL     OW16208   5.714   5.248   5.768  0.2627  0.3398  0.1889
 5005SOL    HW116209   5.795   5.242   5.819 -0.9233 -2.0785  1.9647
 5005SOL    HW216210   5.684   5.338   5.783  0.9568  0.2996  2.2336
 5006SOL     OW16211   0.946   2.074   2.747 -0.2418 -0.2242 -0.0294
 5006SOL    HW116212   1.029   2.105   2.785 -0.2316  1.8116 -1.5549
 5006SOL    HW216213   0.917   2.146   2.691 -2.9866 -0.9431  0.3281
 5007SOL     OW16214   5.014   0.259   7.506  0.2335 -0.0044 -0.4443
 5007SOL    HW116215   5.077   0.227   7.570 -0.9689 -0.9573  0.2933
 5007SOL    HW216216   5.038   0.215   7.424  0.0857 -0.9262  0.0024
 5008SOL     OW16217   3.825   0.826   2.611  0.3451  0.7612  0.2753
 5008SOL    HW116218   3.881   0.820   2.688  1.1592  0.7617 -0.3115
 5008SOL    HW216219   3.834   0.917   2.581 -1.2388  1.2363  1.1080
 5009SOL     OW16220   7.414   5.953   5.232 -0.1394  0.2078 -0.0496
 5009SOL    HW116221   7.373   5.868   5.214  1.0969 -0.3682 -0.2511
 5009SOL    HW216222   7.348   6.018   5.206 -1.2146 -0.6848  0.3866
 5010SOL     OW16223   5.216   3.427   1.417 -0.7340 -0.0362  0.6802
 5010SOL    HW116224   5.242   3.336   1.402  2.5822  0.9675 -0.5467
 5010SOL    HW216225   5.182   3.456   1.332  0.3665  0.4664  0.3989
 5011SOL     OW16226   2.561   1.540   7.417  0.5320  0.5512  0.1749
 5011SOL    HW116227   2.649   1.577   7.430  0.4893  0.6435  0.2020
 5011SOL    HW216228   2.555   1.524   7.323  0.9458 -0.3743  0.2914
 5012SOL     OW16229   7.349   1.970   0.378  0.2829  0.0698  0.1705
 5012SOL    HW116230   7.413   1.976   0.449  2.0324  0.6530 -1.3711
 5012SOL    HW216231   7.327   2.061   0.359 -0.4402 -0.0994  0.1725
 5013SOL     OW16232   3.442   4.231   5.260  0.0461  0.3368 -0.1181
 5013SOL    HW116233   3.431   4.140   5.233 -0.4240  0.0939  0.8708
 5013SOL    HW216234   3.382   4.280   5.203  0.2705  0.0338 -0.6226
 5014SOL     OW16235   0.726   3.961   0.207 -0.2317  0.2705  0.3765
 5014SOL    HW116236   0.736   4.013   0.287  1.5688 -0.5510  0.7291
 5014SOL    HW216237   0.646   3.995   0.167  0.3407  2.6269  1.0778
 5015SOL     OW16238   7.849   7.401   3.823  0.2134 -0.2591 -0.5266
 5015SOL    HW116239   7.847   7.444   3.738 -0.9108 -0.0343 -0.3976
 5015SOL    HW216240   7.775   7.438   3.871 -2.1970 -3.7614 -1.1370
 5016SOL     OW16241   6.271   1.009   4.480  0.2192 -0.1162 -0.6897
 5016SOL    HW116242   6.314   1.080   4.431  0.4981 -0.1886 -0.5539
 5016SOL    HW216243   6.337   0.940   4.484  1.1034  0.7279  1.7465
 5017SOL     OW16244   4.853   2.769   3.386  0.4037  0.3326 -0.2720
 5017SOL    HW116245   4.807   2.685   3.382  1.5971 -0.3532 -0.2022
 5017SOL    HW216246   4.821   2.810   3.466 -1.0090  0.4528 -0.8759
 5018SOL     OW16247   4.220   3.706   5.004 -0.5144 -0.0064 -0.1287
 5018SOL    HW116248   4.154   3.772   5.025 -0.4940 -0.2194  0.6380
 5018SOL    HW216249   4.297   3.730   5.056  0.1186  0.3841 -1.2025
 5019SOL     OW16250   5.808   6.592   1.957 -1.3155 -0.3514 -0.1716
 5019SOL    HW116251   5.854   6.540   1.890  0.2527  1.4002 -0.5406
 5019SOL    HW216252   5.833   6.551   2.040  3.1457  1.8973 -0.1255
 5020SOL     OW16253   5.406   3.822   0.907  0.1062 -0.4870 -0.0028
 5020SOL    HW116254   5.384   3.813   0.999 -0.0557 -2.5394 -0.2166
 5020SOL    HW216255   5.404   3.917   0.891 -0.3848 -0.1394  1.9481
 5021SOL     OW16256   3.257   6.647   0.182  0.3934  0.1700  0.0295
 5021SOL    HW116257   3.335   6.650   0.238  0.4860 -0.4583 -0.0602
 5021SOL    HW216258   3.292   6.644   0.093  0.2625  0.1632 -0.0217
 5022SOL     OW16259   4.808   2.990   7.096 -0.6006 -0.3291 -0.1443
 5022SOL    HW116260   4.833   2.913   7.147 -0.1190 -0.8221 -1.0823
 5022SOL    HW216261   4.892   3.024   7.063 -0.7605  0.9210  0.7055
 5023SOL     OW16262   4.604   2.861   7.887  0.1101 -0.2604  0.6562
 5023SOL    HW116263   4.614   2.941   7.834 -0.8434  0.3464  1.3626
 5023SOL    HW216264   4.530   2.815   7.848  0.9949 -1.1068 -0.0892
 5024SOL     OW16265   1.878   0.499   7.338 -0.0777 -0.4609  0.6151
 5024SOL    HW116266   1.833   0.583   7.339 -0.4726 -0.6552 -0.0708
 5024SOL    HW216267   1.930   0.498   7.418  1.5206  1.3196 -0.2898
 5025SOL     OW16268   8.106   1.512   1.637 -0.0450 -0.5209 -0.4844
 5025SOL    HW116269   8.069   1.481   1.720  1.1391 -0.7118 -0.0052
 5025SOL    HW216270   8.038   1.493   1.572 -0.5905 -1.2983  0.2848
 5026SOL     OW16271   8.133   1.075   8.586 -0.6045 -0.3934 -0.0279
 5026SOL    HW116272   8.146   1.012   8.515  0.1047 -0.0786 -0.1807
 5026SOL    HW216273   8.217   1.119   8.595 -0.7289 -0.3452  0.9331
 5027SOL     OW16274   5.002   4.791   3.674 -0.0684 -0.5291  0.5685
 5027SOL    HW116275   4.912   4.819   3.658 -0.3618 -1.0796  1.1990
 5027SOL    HW216276   5.049   4.814   3.594 -1.0891 -1.5995 -0.3722
 5028SOL     OW16277   4.764   6.919   3.181  0.2528  0.5529  0.1678
 5028SOL    HW116278   4.699   6.854   3.209  0.3370  1.2704  2.2123
 5028SOL    HW216279   4.722   7.004   3.198  1.0973  1.0181 -0.0105
 5029SOL     OW16280   1.874   1.977   5.820  0.1538 -0.5214  0.1690
 5029SOL    HW116281   1.946   2.036   5.844  0.6521 -1.1039  0.1141
 5029SOL    HW216282   1.833   2.019   5.744  0.8061 -0.4852 -0.1686
 5030SOL     OW16283   8.059   6.018   4.954 -0.2735  0.6526 -0.0780
 5030SOL    HW116284   8.043   5.923   4.958  0.1711  0.5956  0.3867
 5030SOL    HW216285   8.007   6.054   5.026  0.6248  0.6096  0.6040
 5031SOL     OW16286   5.326   2.971   2.584 -0.2933  0.5928  0.3901
 5031SOL    HW116287   5.398   3.034   2.589 -0.1184  0.3320  1.4741
 5031SOL    HW216288   5.247   3.025   2.573  0.0554  0.8758 -0.8950
 5032SOL     OW16289   5.002   2.720   1.983  0.0375 -0.2183  0.3286
 5032SOL    HW116290   5.093   2.695   1.965 -0.3432 -1.0878 -0.4984
 5032SOL    HW216291   4.992   2.805   1.941 -0.2619 -1.3287 -2.0104
 5033SOL     OW16292   7.255   6.987   5.199  0.1448 -0.5604  0.6090
 5033SOL    HW116293   7.183   7.037   5.237 -0.5216 -0.6035 -0.5710
 5033SOL    HW216294   7.217   6.900   5.183  1.1561 -1.3625  2.2223
 5034SOL     OW16295   4.618   7.204   7.557  0.5813 -0.2313 -0.1171
 5034SOL    HW116296   4.693   7.147   7.541 -0.1258 -0.9034 -1.1830
 5034SOL    HW216297   4.555   7.180   7.488 -0.5403  0.4190  0.6570
 5035SOL     OW16298   1.788   7.123   4.872 -0.2798 -0.1611  0.0586
 5035SOL    HW116299   1.726   7.122   4.945  1.5580  2.3887  1.8229
 5035SOL    HW216300   1.823   7.212   4.871  1.7336 -0.8617 -2.2553
 5036SOL     OW16301   2.544   5.815   7.078 -1.1036 -0.0855  0.0574
 5036SOL    HW116302   2.587   5.808   7.164 -1.2963  1.7662  0.3552
 5036SOL    HW216303   2.617   5.815   7.016 -0.6789  1.9294  0.4865
 5037SOL     OW16304   1.872   1.438   5.781  0.5205  0.2849  0.0921
 5037SOL    HW116305   1.942   1.493   5.746  0.2764 -0.0313 -0.9279
 5037SOL    HW216306   1.798   1.497   5.793  0.5869  0.3820  0.0273
 5038SOL     OW16307   5.493   6.328   7.173 -0.1251  0.2799  0.0584
 5038SOL    HW116308   5.441   6.259   7.214  0.1342  0.4247  0.6393
 5038SOL    HW216309   5.583   6.296   7.179 -0.2610 -0.8722 -2.6643
 5039SOL     OW16310   6.033   1.738   1.161  0.6623  0.1954 -0.5077
 5039SOL    HW116311   6.042   1.803   1.091  0.4047  0.8880  0.0929
 5039SOL    HW216312   5.939   1.721   1.166  0.8680 -1.7339 -1.9942
 5040SOL     OW16313   0.303   8.216   4.022  0.1786 -0.4903  0.4512
 5040SOL    HW116314   0.235   8.247   3.961 -0.9810 -0.3445  1.7666
 5040SOL    HW216315   0.276   8.127   4.044 -0.7624  0.2641  2.5508
 5041SOL     OW16316   7.274   2.776   3.997 -0.8652  0.3682 -0.0508
 5041SOL    HW116317   7.256   2.800   4.088  0.0308  0.4617  0.1164
 5041SOL    HW216318   7.188   2.764   3.957 -1.3048  1.6785  0.4464
 5042SOL     OW16319   3.376   5.596   7.970 -0.4209  0.9444  0.4406
 5042SOL    HW116320   3.431   5.569   7.896 -0.4656  0.0294  0.7313
 5042SOL    HW216321   3.437   5.611   8.042 -0.5549 -0.2893  0.8273
 5043SOL     OW16322   2.491   1.527   4.568  0.5128  0.6813 -0.2733
 5043SOL    HW116323   2.544   1.556   4.642  0.6513 -0.0850 -0.0639
 5043SOL    HW216324   2.441   1.453   4.602 -1.0594  1.6588 -0.3260
 5044SOL     OW16325   6.206   7.157   6.807 -0.1241 -0.8653  0.1196
 5044SOL    HW116326   6.250   7.120   6.730 -0.0553 -0.1019 -0.2147
 5044SOL    HW216327   6.277   7.168   6.871 -0.0443 -0.7744  0.0168
 5045SOL     OW16328   3.471   2.015   1.595  0.3557  0.0428 -0.0479
 5045SOL    HW116329   3.540   2.036   1.658  1.0236  0.4787 -0.8976
 5045SOL    HW216330   3.471   1.919   1.591  1.1728  0.0453 -0.3077
 5046SOL     OW16331   4.016   5.703   8.489 -0.0062  0.2917  0.4970
 5046SOL    HW116332   3.975   5.760   8.423 -1.0337  0.8049  1.5459
 5046SOL    HW216333   4.101   5.743   8.507  0.7022 -0.3649 -1.1543
 5047SOL     OW16334   7.127   3.439   4.805 -0.4053  0.5287  0.5864
 5047SOL    HW116335   7.115   3.345   4.811  1.2999  0.3482  2.3463
 5047SOL    HW216336   7.057   3.476   4.860 -0.9328  0.2909  0.0782
 5048SOL     OW16337   0.238   5.503   8.525  0.1302  0.1394 -0.1585
 5048SOL    HW116338   0.232   5.559   8.447  0.4761 -0.3362 -0.5305
 5048SOL    HW216339   0.149   5.469   8.536 -0.2634  1.3091  0.4936
 5049SOL     OW16340   5.687   3.546   3.494 -0.1941 -0.2870 -0.0553
 5049SOL    HW116341   5.706   3.513   3.407  0.9047 -1.5478  0.6294
 5049SOL    HW216342   5.606   3.501   3.520  0.6090 -1.5516  0.3690
 5050SOL     OW16343   3.697   0.428   0.757  0.1444  0.0359 -0.0420
 5050SOL    HW116344   3.780   0.381   0.767  0.0442 -0.3375 -0.8290
 5050SOL    HW216345   3.653   0.381   0.686  0.1555  1.4962 -1.0491
 5051SOL     OW16346   4.904   0.694   3.000 -0.2421  0.0506 -0.5083
 5051SOL    HW116347   4.968   0.760   3.028  1.3022 -1.4400 -0.3240
 5051SOL    HW216348   4.821   0.726   3.034  0.8994  0.4308  2.2138
 5052SOL     OW16349   5.346   4.329   7.693  0.0047 -0.4289  0.0533
 5052SOL    HW116350   5.347   4.276   7.773 -0.8727 -0.3594  0.1183
 5052SOL    HW216351   5.335   4.419   7.725  2.5590 -0.0337  0.0148
 5053SOL     OW16352   5.734   2.269   3.936  0.1061 -0.3161  0.1829
 5053SOL    HW116353   5.795   2.217   3.988  0.0446  0.5532  1.1557
 5053SOL    HW216354   5.790   2.325   3.882  0.1587 -0.4958  0.0463
 5054SOL     OW16355   3.323   1.313   0.828  0.4320 -0.0273 -0.2624
 5054SOL    HW116356   3.402   1.293   0.778  1.0735  2.3189 -0.3429
 5054SOL    HW216357   3.355   1.349   0.911 -0.5332  0.4893 -0.0868
 5055SOL     OW16358   6.173   6.743   1.869  0.2274 -0.5681 -0.6849
 5055SOL    HW116359   6.103   6.808   1.864 -0.4645 -1.3506 -1.5901
 5055SOL    HW216360   6.231   6.764   1.796  0.8312 -0.0648 -0.0768
 5056SOL     OW16361   6.776   1.866   6.327 -0.1452  0.5277 -0.0346
 5056SOL    HW116362   6.870   1.879   6.333 -0.2185  0.8671  0.5317
 5056SOL    HW216363   6.761   1.836   6.238  0.4820  0.5969 -0.1683
 5057SOL     OW16364   1.829   5.702   6.681  0.6961  0.0200  0.5124
 5057SOL    HW116365   1.738   5.682   6.703 -0.4381  2.1545 -1.7528
 5057SOL    HW216366   1.840   5.794   6.706  1.4918  0.4296 -1.2130
 5058SOL     OW16367   7.941   4.817   6.417  0.4610 -0.1590 -0.3406
 5058SOL    HW116368   7.894   4.775   6.344  1.5595  1.0420 -1.8167
 5058SOL    HW216369   7.908   4.772   6.495 -0.7597 -1.5264 -1.5537
 5059SOL     OW16370   0.067   6.712   5.507  0.5444  0.0466 -0.0984
 5059SOL    HW116371   0.135   6.704   5.440 -0.9694 -0.3342 -1.6536
 5059SOL    HW216372   0.044   6.805   5.506 -0.9897 -0.2889 -1.7503
 5060SOL     OW16373   1.250   1.957   0.724 -0.5494  0.5485 -0.7809
 5060SOL    HW116374   1.324   1.905   0.755 -0.8737  0.5800  0.0659
 5060SOL    HW216375   1.289   2.038   0.692 -0.0848 -0.0078 -1.6704
 5061SOL     OW16376   8.243   2.825   2.831  0.0148  0.6398  0.5498
 5061SOL    HW116377   8.157   2.854   2.860 -0.0177  0.9504  0.1496
 5061SOL    HW216378   8.227   2.777   2.751  0.3746  2.3123 -0.5791
 5062SOL     OW16379   2.607   2.800   2.781 -0.1986  0.3891  0.2914
 5062SOL    HW116380   2.660   2.725   2.756  1.9903  1.7121  0.6691
 5062SOL    HW216381   2.593   2.848   2.700  0.6656  0.9045  0.4329
 5063SOL     OW16382   7.343   3.128   1.848 -0.1460  0.5382 -0.1578
 5063SOL    HW116383   7.395   3.189   1.899 -0.1333  1.4294 -1.1950
 5063SOL    HW216384   7.360   3.043   1.888  0.8846  1.0194  0.4828
 5064SOL     OW16385   2.039   8.316   2.122 -0.0274  0.9656  0.2267
 5064SOL    HW116386   2.050   8.230   2.163 -0.5324  0.4071 -0.7985
 5064SOL    HW216387   2.000   8.370   2.191  1.9972  0.9215  1.4945
 5065SOL     OW16388   2.921   1.337   0.602 -0.6475  0.0289  0.2249
 5065SOL    HW116389   2.928   1.242   0.611  0.3971 -0.1236 -1.7061
 5065SOL    HW216390   2.843   1.351   0.548 -0.4753  0.2321  0.0242
 5066SOL     OW16391   4.558   6.138   6.323 -0.1275 -0.5953 -0.3478
 5066SOL    HW116392   4.495   6.181   6.382 -0.0653 -0.9570 -0.0199
 5066SOL    HW216393   4.628   6.202   6.313  0.0015 -0.6455  0.2020
 5067SOL     OW16394   2.546   1.383   3.698 -0.4677 -0.3572 -0.8199
 5067SOL    HW116395   2.590   1.468   3.691 -0.3009 -0.4633 -1.0619
 5067SOL    HW216396   2.513   1.381   3.788 -0.6384  0.0435 -0.8707
 5068SOL     OW16397   4.132   3.690   3.139 -0.0059 -0.1562  0.2330
 5068SOL    HW116398   4.167   3.709   3.226 -0.5076 -0.3737  0.4906
 5068SOL    HW216399   4.142   3.595   3.129  1.2829  0.0412 -0.5048
 5069SOL     OW16400   1.818   8.082   0.598 -0.1949  0.0187 -0.1463
 5069SOL    HW116401   1.857   8.080   0.510 -3.3207 -0.8579 -1.6553
 5069SOL    HW216402   1.817   7.990   0.625 -0.3851  0.1430  0.2698
 5070SOL     OW16403   1.904   7.262   3.230 -0.1106 -0.5875 -0.0443
 5070SOL    HW116404   1.957   7.334   3.196 -0.1603 -0.0689  0.9115
 5070SOL    HW216405   1.870   7.296   3.313 -1.2224 -1.2329 -0.2202
 5071SOL     OW16406   7.778   5.475   4.353  0.4757 -0.4727 -0.7751
 5071SOL    HW116407   7.858   5.472   4.301  0.4485 -0.0815 -0.8466
 5071SOL    HW216408   7.757   5.569   4.358  1.1719 -0.3842  0.9987
 5072SOL     OW16409   5.579   7.155   5.193 -0.6233  0.0407  0.1245
 5072SOL    HW116410   5.515   7.210   5.148 -0.6682 -0.3423 -0.2853
 5072SOL    HW216411   5.595   7.082   5.133 -1.3243 -0.9328  1.0753
 5073SOL     OW16412   4.809   6.332   7.456 -0.1839  0.5023  0.1108
 5073SOL    HW116413   4.877   6.396   7.435  0.4495 -0.3138 -0.3510
 5073SOL    HW216414   4.841   6.289   7.535 -0.4679  0.5437  0.2495
 5074SOL     OW16415   4.664   5.022   5.921 -0.0787 -0.2479  0.3314
 5074SOL    HW116416   4.754   5.004   5.946  0.3127  1.3049  0.1321
 5074SOL    HW216417   4.620   5.047   6.003 -0.5175 -1.6528  0.5432
 5075SOL     OW16418   0.220   0.542   0.592 -0.0738  0.5251  0.0623
 5075SOL    HW116419   0.262   0.553   0.678 -0.0479 -0.7295  0.2249
 5075SOL    HW216420   0.157   0.614   0.587  1.0800  1.6199  0.4105
 5076SOL     OW16421   2.526   8.060   8.284 -0.1373 -0.3920  0.1279
 5076SOL    HW116422   2.438   8.040   8.252 -0.0732 -1.3567  0.5208
 5076SOL    HW216423   2.543   7.993   8.351  0.7567 -0.0069  0.2955
 5077SOL     OW16424   4.204   6.855   4.071  0.1303 -0.4899  0.2252
 5077SOL    HW116425   4.258   6.902   4.134 -1.4090 -0.7969  1.8636
 5077SOL    HW216426   4.264   6.794   4.028  1.5466  0.8586  0.1920
 5078SOL     OW16427   1.029   2.783   1.351 -0.7886  0.1909 -0.1130
 5078SOL    HW116428   0.996   2.761   1.438  0.6308 -1.0592  0.1486
 5078SOL    HW216429   0.995   2.715   1.294 -1.2043  0.6628 -0.4429
 5079SOL     OW16430   7.184   5.060   8.571 -0.8037  0.1260  0.2974
 5079SOL    HW116431   7.139   5.057   8.486 -0.6769 -2.2609  0.2705
 5079SOL    HW216432   7.114   5.053   8.636 -0.7614  0.3448  0.3699
 5080SOL     OW16433   5.497   2.682   5.101 -0.1799  0.3742  0.5626
 5080SOL    HW116434   5.409   2.645   5.107  0.0963 -0.3663  0.1222
 5080SOL    HW216435   5.507   2.708   5.010 -0.1401  0.9741  0.7319
 5081SOL     OW16436   7.368   4.976   4.025  0.0423  0.0286 -0.4035
 5081SOL    HW116437   7.289   4.985   3.972  0.7203  0.8094 -1.3290
 5081SOL    HW216438   7.390   4.882   4.021 -1.1780 -0.3125  0.4179
 5082SOL     OW16439   3.595   2.370   3.709  0.3253  0.0781 -0.5144
 5082SOL    HW116440   3.540   2.347   3.635  0.5358 -0.1020 -0.6180
 5082SOL    HW216441   3.588   2.294   3.768 -0.9855  0.8235  0.3275
 5083SOL     OW16442   1.985   6.833   5.476  0.4040  0.4778 -0.0184
 5083SOL    HW116443   2.004   6.819   5.569 -2.7862 -0.0044  0.6891
 5083SOL    HW216444   1.904   6.783   5.461  0.3758  1.2364 -2.8487
 5084SOL     OW16445   8.010   5.851   1.711 -1.1103 -0.0680  0.1867
 5084SOL    HW116446   8.071   5.854   1.638  0.4886  3.6653  1.4605
 5084SOL    HW216447   8.061   5.816   1.784 -1.3731  0.3581  0.5785
 5085SOL     OW16448   2.559   8.069   6.159 -0.3150  0.2272  0.2014
 5085SOL    HW116449   2.610   8.141   6.197  1.9596 -1.3298  0.2789
 5085SOL    HW216450   2.520   8.025   6.235 -0.8927  0.7585  0.2237
 5086SOL     OW16451   2.701   8.281   1.532  0.2539 -0.1664  0.2153
 5086SOL    HW116452   2.753   8.269   1.611  1.5789 -0.0226 -0.6037
 5086SOL    HW216453   2.611   8.290   1.564  0.5525 -1.5560  1.5963
 5087SOL     OW16454   2.366   8.117   0.895 -0.0801  0.7330 -0.2431
 5087SOL    HW116455   2.290   8.137   0.949 -0.0044  2.8793 -0.8195
 5087SOL    HW216456   2.415   8.200   0.891  1.3161 -0.0936 -1.3866
 5088SOL     OW16457   0.448   2.021   4.206  0.0727 -0.0855 -0.4396
 5088SOL    HW116458   0.377   2.053   4.150  1.3536  0.7246 -1.6736
 5088SOL    HW216459   0.508   1.977   4.146 -0.1425 -2.2028  0.8129
 5089SOL     OW16460   6.606   6.232   2.550 -0.3124  0.0958  0.3398
 5089SOL    HW116461   6.649   6.200   2.471  0.0851  1.4482 -0.0061
 5089SOL    HW216462   6.525   6.180   2.556  0.6171 -1.4412  0.1934
 5090SOL     OW16463   5.252   5.710   2.331  0.1990  0.0766  0.0604
 5090SOL    HW116464   5.275   5.740   2.419  0.3768  1.1189 -0.3313
 5090SOL    HW216465   5.175   5.762   2.307  0.1767 -0.1757 -0.4163
 5091SOL     OW16466   6.990   0.907   5.927  0.1354  0.0396 -0.0426
 5091SOL    HW116467   7.007   0.894   5.834 -0.6750  1.5448 -0.4292
 5091SOL    HW216468   7.077   0.920   5.965  0.4331 -0.0528 -0.6804
 5092SOL     OW16469   0.011   1.984   4.911 -0.3454 -0.2988 -0.1667
 5092SOL    HW116470   0.096   2.028   4.921 -0.5976  0.1773 -0.0943
 5092SOL    HW216471  -0.050   2.054   4.889 -0.6738 -0.6765 -0.4770
 5093SOL     OW16472   3.749   6.848   6.695  0.1694  0.0385 -0.8933
 5093SOL    HW116473   3.656   6.846   6.673  0.5248 -1.4154 -2.4097
 5093SOL    HW216474   3.790   6.896   6.624  0.8218 -1.1370 -1.3352
 5094SOL     OW16475   0.346   3.328   1.797  0.4021 -0.4320  0.0784
 5094SOL    HW116476   0.317   3.258   1.738 -0.6555  0.7939 -0.9095
 5094SOL    HW216477   0.372   3.399   1.739  1.9765 -0.1696  1.0519
 5095SOL     OW16478   8.400   1.558   5.884  0.2322  0.0173  0.0725
 5095SOL    HW116479   8.419   1.636   5.935 -1.4870 -0.5321  1.6496
 5095SOL    HW216480   8.486   1.523   5.861  1.0852  0.3673  2.4798
 5096SOL     OW16481   0.821   6.721   8.329  0.2567 -0.0241 -0.4721
 5096SOL    HW116482   0.912   6.716   8.301  0.6217  1.1939  0.4001
 5096SOL    HW216483   0.789   6.804   8.293  0.2380  0.7361  1.1672
 5097SOL     OW16484   4.701   2.217   2.099  0.0894  0.1719  0.1577
 5097SOL    HW116485   4.719   2.179   2.013  0.6590  1.8651 -0.5151
 5097SOL    HW216486   4.729   2.308   2.091  0.1135  0.3781  2.1348
 5098SOL     OW16487   2.135   4.968   3.281  0.1905 -0.1355 -0.1347
 5098SOL    HW116488   2.181   5.048   3.254 -1.4642 -0.0263 -2.9742
 5098SOL    HW216489   2.087   4.941   3.203 -1.7664 -2.1872  1.6771
 5099SOL     OW16490   4.653   8.044   3.355  0.6186  0.5375  0.2967
 5099SOL    HW116491   4.610   8.126   3.381 -0.9695  0.0503 -0.6739
 5099SOL    HW216492   4.590   8.002   3.296  1.1347 -1.6506  1.2166
 5100SOL     OW16493   7.406   3.401   2.554  1.0943 -0.2765 -0.1060
 5100SOL    HW116494   7.437   3.355   2.632  1.7849 -0.9873 -0.7866
 5100SOL    HW216495   7.387   3.490   2.585  2.7094 -0.1445  0.5837
 5101SOL     OW16496   7.395   5.019   3.347 -0.4922  0.5620 -0.5906
 5101SOL    HW116497   7.486   5.026   3.375 -0.1718  1.7436 -1.8119
 5101SOL    HW216498   7.345   5.067   3.413 -0.4112 -1.0075  0.6849
 5102SOL     OW16499   0.075   5.712   5.403 -0.1342  0.0015  0.1428
 5102SOL    HW116500   0.161   5.750   5.419 -0.3352  0.3893  0.3349
 5102SOL    HW216501   0.087   5.618   5.413 -0.1201  0.1734  2.0635
 5103SOL     OW16502   5.869   8.586   6.359 -0.2923 -0.0841 -0.1103
 5103SOL    HW116503   5.929   8.641   6.410  1.4461  0.4921 -2.6051
 5103SOL    HW216504   5.887   8.497   6.390  0.1520  0.3095  0.8145
 5104SOL     OW16505   3.331   4.701   7.502  0.4545  0.2503  0.0418
 5104SOL    HW116506   3.264   4.704   7.569 -0.2809 -0.5438 -0.6393
 5104SOL    HW216507   3.386   4.627   7.526  0.6514  0.4439  0.1908
 5105SOL     OW16508   5.303   1.268   0.949  0.2815 -1.1468  0.2110
 5105SOL    HW116509   5.214   1.300   0.960  0.5636 -0.2691 -0.0115
 5105SOL    HW216510   5.347   1.291   1.031  1.5265  2.5760 -1.2858
 5106SOL     OW16511   4.019   3.750   8.356  0.2155  0.0663  0.0453
 5106SOL    HW116512   4.015   3.789   8.268 -0.5688  0.0732  0.0713
 5106SOL    HW216513   4.111   3.728   8.369  0.4162  0.5001 -0.5901
 5107SOL     OW16514   2.429   3.836   2.491 -0.1919  0.0642 -1.2076
 5107SOL    HW116515   2.388   3.750   2.488 -0.1701  0.0885 -2.7073
 5107SOL    HW216516   2.375   3.891   2.434 -0.1756  1.0427 -0.3137
 5108SOL     OW16517   4.849   3.735   6.500  0.4017 -0.0043 -0.0277
 5108SOL    HW116518   4.755   3.741   6.515  0.2268  0.4307 -1.2130
 5108SOL    HW216519   4.876   3.824   6.479  0.9837 -0.2220 -0.2140
 5109SOL     OW16520   1.032   2.467   5.232  0.1620  0.4883  0.0056
 5109SOL    HW116521   0.967   2.438   5.168  1.4944  0.3298 -1.3200
 5109SOL    HW216522   1.016   2.561   5.241  0.1165  0.5577 -0.7454
 5110SOL     OW16523   4.138   1.362   5.791  0.1967 -0.0396  0.6440
 5110SOL    HW116524   4.106   1.421   5.722  0.6757 -1.1342 -0.5515
 5110SOL    HW216525   4.059   1.326   5.831 -0.0861 -0.0788  0.0540
 5111SOL     OW16526   6.421   1.903   1.904 -0.2089  0.8106  0.0534
 5111SOL    HW116527   6.464   1.988   1.900  0.2727  0.5864  0.3129
 5111SOL    HW216528   6.328   1.923   1.915  0.0601  1.3129  1.8101
 5112SOL     OW16529   8.597   3.539   2.947 -0.3412  0.1658 -0.0630
 5112SOL    HW116530   8.612   3.514   2.855 -1.2989  0.4684 -0.3176
 5112SOL    HW216531   8.684   3.540   2.986 -0.0850 -2.0403 -0.4351
 5113SOL     OW16532   3.009   6.016   2.798  0.1644 -0.2644  0.0417
 5113SOL    HW116533   3.074   6.027   2.867 -0.0140 -2.2609  0.6004
 5113SOL    HW216534   2.959   6.097   2.799  2.1101  0.9923  0.1403
 5114SOL     OW16535   6.303   4.286   2.810  0.1342 -0.1879 -0.4625
 5114SOL    HW116536   6.381   4.250   2.769  0.6266 -1.9470  1.8345
 5114SOL    HW216537   6.294   4.373   2.771  2.3348 -0.5231 -1.8971
 5115SOL     OW16538   6.875   4.248   1.954  0.2693  0.1343 -0.0988
 5115SOL    HW116539   6.918   4.317   1.903  0.6838  0.2453  0.3939
 5115SOL    HW216540   6.947   4.196   1.989 -0.0421 -0.4561 -0.3367
 5116SOL     OW16541   4.030   2.425   8.072  0.3859 -0.2293 -0.0266
 5116SOL    HW116542   3.968   2.356   8.098  0.6457 -0.3115  0.3884
 5116SOL    HW216543   4.110   2.405   8.121  0.3281  0.6026  0.4295
 5117SOL     OW16544   5.420   6.774   0.142 -0.5805 -0.1411  0.5649
 5117SOL    HW116545   5.456   6.685   0.136 -0.0215  0.0008  1.5265
 5117SOL    HW216546   5.466   6.813   0.216 -0.2258  1.2485 -0.3635
 5118SOL     OW16547   8.008   1.636   4.804 -0.1596 -0.2389  0.3260
 5118SOL    HW116548   7.958   1.635   4.723  1.2495 -0.7706 -0.5705
 5118SOL    HW216549   7.963   1.700   4.859 -0.0627  1.5940 -1.5831
 5119SOL     OW16550   1.038   6.694   7.569 -0.5092 -0.4551  0.3132
 5119SOL    HW116551   1.056   6.677   7.477  0.9072  1.3108  0.2026
 5119SOL    HW216552   0.952   6.654   7.584 -1.6256  0.7059 -2.2408
 5120SOL     OW16553   4.051   7.736   2.200  0.2159  0.0427  0.4408
 5120SOL    HW116554   4.056   7.648   2.163  0.6012 -0.1582  0.9681
 5120SOL    HW216555   3.977   7.777   2.153 -0.3431 -0.7542  0.6036
 5121SOL     OW16556   7.506   0.713   2.705 -0.2100  0.6814 -0.1536
 5121SOL    HW116557   7.522   0.749   2.618 -0.1675  0.4366 -0.2476
 5121SOL    HW216558   7.483   0.621   2.690 -2.5178  1.2053 -0.0797
 5122SOL     OW16559   0.857   5.723   0.875 -0.3898  0.1871 -0.5535
 5122SOL    HW116560   0.950   5.740   0.860 -0.3159  0.3357  0.0540
 5122SOL    HW216561   0.812   5.779   0.812 -0.0461 -2.8087 -3.7391
 5123SOL     OW16562   1.538   6.019   5.496 -0.0748 -0.8059 -0.2242
 5123SOL    HW116563   1.507   6.075   5.425 -0.3964  1.6914  1.7342
 5123SOL    HW216564   1.490   5.937   5.485 -2.3881  0.5790 -1.1509
 5124SOL     OW16565   2.423   4.005   7.517 -0.7767  0.1127 -0.5474
 5124SOL    HW116566   2.346   4.046   7.477  0.1542  0.5841 -1.9439
 5124SOL    HW216567   2.400   3.913   7.526 -1.7853  0.3846 -0.2097
 5125SOL     OW16568   3.561   3.113   0.819  0.1185  0.5264  0.1800
 5125SOL    HW116569   3.503   3.069   0.881  0.3346 -0.9436 -0.6086
 5125SOL    HW216570   3.502   3.159   0.759 -0.1138  1.2993  0.9804
 5126SOL     OW16571   0.697   1.868   1.480 -0.6408  0.3442 -0.3522
 5126SOL    HW116572   0.618   1.821   1.507 -0.8915 -0.2461 -2.0148
 5126SOL    HW216573   0.685   1.884   1.387  1.6623 -0.6812 -0.9045
 5127SOL     OW16574   3.642   0.361   2.410  0.1956  0.4278  0.4505
 5127SOL    HW116575   3.685   0.425   2.466  1.4982  0.1124 -0.1527
 5127SOL    HW216576   3.645   0.280   2.461  0.1379  0.4502  0.4897
 5128SOL     OW16577   6.886   5.531   8.191  0.0994 -0.4434  0.4078
 5128SOL    HW116578   6.951   5.572   8.249  0.4602 -0.4776  0.0344
 5128SOL    HW216579   6.824   5.489   8.250 -0.4077  0.8260  0.8187
 5129SOL     OW16580   6.032   2.952   2.927  0.9595 -0.9819 -0.3437
 5129SOL    HW116581   6.073   3.011   2.991 -0.0270 -0.1602 -0.4509
 5129SOL    HW216582   5.943   2.940   2.959  0.3531 -0.3112 -1.7115
 5130SOL     OW16583   5.918   2.189   1.321  0.6146  0.0140  0.0140
 5130SOL    HW116584   5.925   2.095   1.332  1.7727  0.0182 -0.6722
 5130SOL    HW216585   5.978   2.226   1.386 -0.8389  0.3412  1.2318
 5131SOL     OW16586   4.870   5.655   8.260 -0.0231  0.6915 -0.7074
 5131SOL    HW116587   4.880   5.560   8.261 -1.0414  0.5757 -0.1381
 5131SOL    HW216588   4.868   5.678   8.167  0.8950  0.2478 -0.8523
 5132SOL     OW16589   6.546   2.002   0.365  0.2682 -0.1332 -0.7218
 5132SOL    HW116590   6.583   1.917   0.344  0.1699 -0.2244 -0.5255
 5132SOL    HW216591   6.621   2.058   0.384  0.3187 -0.2356 -0.6261
 5133SOL     OW16592   5.073   1.508   5.326  0.4033  0.0839 -0.4202
 5133SOL    HW116593   5.064   1.434   5.266  0.5142 -0.4677  0.2283
 5133SOL    HW216594   5.002   1.497   5.389  0.0698  0.8577 -0.6464
 5134SOL     OW16595   3.340   0.108   6.975  0.3683 -0.6241  0.6875
 5134SOL    HW116596   3.336   0.202   6.993 -0.4181 -0.7627  1.2507
 5134SOL    HW216597   3.433   0.086   6.984  0.4942  0.0182  0.9990
 5135SOL     OW16598   6.859   4.277   3.310 -0.2712  0.6240 -0.4377
 5135SOL    HW116599   6.887   4.367   3.327  0.1113  0.5575 -0.6862
 5135SOL    HW216600   6.785   4.285   3.249 -0.4643  0.7833 -0.1820
 5136SOL     OW16601   5.634   1.362   6.145 -0.4371  0.1038 -0.1380
 5136SOL    HW116602   5.708   1.422   6.133 -0.7292  0.7574  1.1432
 5136SOL    HW216603   5.558   1.419   6.156 -0.5226 -0.4010  2.4659
 5137SOL     OW16604   8.161   2.315   0.320 -0.0303  0.1359 -0.1789
 5137SOL    HW116605   8.080   2.268   0.343  0.2339 -0.1719  0.1482
 5137SOL    HW216606   8.231   2.256   0.349  0.3106  0.9639  0.7539
 5138SOL     OW16607   7.223   1.719   7.703 -0.6500 -0.0768  0.1854
 5138SOL    HW116608   7.283   1.776   7.750 -1.5068  0.5174  0.5824
 5138SOL    HW216609   7.188   1.659   7.769 -1.6123  0.5500  0.2667
 5139SOL     OW16610   2.939   4.883   2.250  0.6046  0.1904 -0.2046
 5139SOL    HW116611   3.006   4.817   2.263 -0.5602 -0.8076  1.0550
 5139SOL    HW216612   2.980   4.949   2.194  1.1833 -2.5359 -3.2831
 5140SOL     OW16613   6.201   4.667   7.940  0.0226  0.0092  0.7246
 5140SOL    HW116614   6.186   4.761   7.952 -0.5873 -0.0678  0.5861
 5140SOL    HW216615   6.284   4.650   7.985  2.4345  1.4102 -2.7686
 5141SOL     OW16616   6.901   7.844   3.552  0.0100  0.5533 -0.5362
 5141SOL    HW116617   6.836   7.774   3.545 -1.5067  1.6891  1.3376
 5141SOL    HW216618   6.854   7.923   3.527  0.0701  1.6551  2.4047
 5142SOL     OW16619   5.623   0.413   2.677  0.5923  0.4466  0.1406
 5142SOL    HW116620   5.715   0.428   2.698  1.5585 -0.8267 -2.6087
 5142SOL    HW216621   5.618   0.319   2.661 -1.5122  0.2961  1.3653
 5143SOL     OW16622   6.808   5.481   6.788  0.0062 -0.0710  0.0807
 5143SOL    HW116623   6.835   5.573   6.779  0.7647 -0.3137 -0.2640
 5143SOL    HW216624   6.890   5.434   6.804 -0.3705 -0.6943  0.2058
 5144SOL     OW16625   6.541   5.064   7.294  0.2293  0.1938  0.1361
 5144SOL    HW116626   6.608   5.047   7.360  0.0228  0.6488  0.4711
 5144SOL    HW216627   6.534   5.159   7.290  0.1837  0.1686 -0.4902
 5145SOL     OW16628   1.755   4.420   2.095 -0.0779  0.0241  0.1214
 5145SOL    HW116629   1.663   4.443   2.104 -0.0684  0.4308 -0.7453
 5145SOL    HW216630   1.801   4.482   2.152 -0.4688 -1.5665  2.2992
 5146SOL     OW16631   7.716   7.644   3.959 -0.0577 -0.0603 -0.0413
 5146SOL    HW116632   7.785   7.676   3.901 -0.6728  1.9376  0.2576
 5146SOL    HW216633   7.753   7.653   4.047 -0.8772  1.6249  0.1641
 5147SOL     OW16634   6.650   6.371   3.808  0.2080  0.3131 -0.3768
 5147SOL    HW116635   6.672   6.292   3.759 -2.1418 -0.3350 -0.4930
 5147SOL    HW216636   6.732   6.397   3.849  1.4980 -1.0254 -1.9523
 5148SOL     OW16637   2.734   1.225   6.986 -0.2264 -0.3142 -0.3880
 5148SOL    HW116638   2.722   1.173   7.065  0.0176  0.7185  0.3477
 5148SOL    HW216639   2.812   1.188   6.944  0.0210 -0.4457  0.1879
 5149SOL     OW16640   1.957   6.401   4.411  0.2138 -0.1858  0.2052
 5149SOL    HW116641   2.001   6.400   4.326 -0.1231  2.1050 -0.0406
 5149SOL    HW216642   2.028   6.386   4.475  0.8065  0.1934 -0.3532
 5150SOL     OW16643   0.079   5.959   1.104  0.3408  0.1116 -0.2030
 5150SOL    HW116644   0.113   5.915   1.027 -0.5992 -1.8063  0.4185
 5150SOL    HW216645   0.059   6.048   1.074 -0.0320 -0.5895 -2.1699
 5151SOL     OW16646   6.067   1.814   0.382  0.6788  0.1713 -0.5045
 5151SOL    HW116647   6.056   1.824   0.476 -1.0722 -0.1257 -0.6407
 5151SOL    HW216648   6.136   1.876   0.359  0.6285  0.7713  0.8586
 5152SOL     OW16649   0.555   2.675   3.338  0.2869  0.4065 -0.0322
 5152SOL    HW116650   0.648   2.681   3.314  0.9981  0.6261  2.4964
 5152SOL    HW216651   0.555   2.625   3.420 -1.8450  0.4198  0.0243
 5153SOL     OW16652   5.715   7.532   4.813  0.2159 -0.2665 -0.1207
 5153SOL    HW116653   5.711   7.439   4.834  1.4273 -0.3504 -0.1910
 5153SOL    HW216654   5.715   7.535   4.717 -0.6675 -0.1408 -0.1218
 5154SOL     OW16655   3.644   6.473   4.322 -0.0009  0.6397  0.9809
 5154SOL    HW116656   3.693   6.407   4.371 -3.9470 -1.2980  2.7439
 5154SOL    HW216657   3.627   6.543   4.386 -1.1314  0.3692  0.9898
 5155SOL     OW16658   0.255   2.241   3.921 -0.1426 -0.6702  0.5481
 5155SOL    HW116659   0.250   2.178   3.993 -1.8435 -1.5490 -0.2682
 5155SOL    HW216660   0.212   2.197   3.848 -0.8963  1.2325 -0.2225
 5156SOL     OW16661   4.347   3.196   0.455  0.0678 -0.0709 -0.4073
 5156SOL    HW116662   4.256   3.165   0.454 -0.2771  0.8248  1.0646
 5156SOL    HW216663   4.399   3.115   0.451 -0.8145 -0.8463  1.9557
 5157SOL     OW16664   5.223   4.181   1.522  0.6774 -0.2058  0.2376
 5157SOL    HW116665   5.308   4.210   1.556  0.2248 -0.2557  1.4710
 5157SOL    HW216666   5.209   4.234   1.443  1.0784  1.0385  0.9705
 5158SOL     OW16667   2.487   3.781   8.198  0.1634 -0.1532 -0.2899
 5158SOL    HW116668   2.504   3.701   8.248  0.7251  1.0744  1.6118
 5158SOL    HW216669   2.398   3.806   8.223  0.2434  0.1639 -0.3157
 5159SOL     OW16670   1.895   7.239   3.847  0.2914 -0.2345  0.2072
 5159SOL    HW116671   1.926   7.160   3.802 -0.7687 -0.5108 -0.0487
 5159SOL    HW216672   1.976   7.283   3.874  0.9190 -1.8108  1.0798
 5160SOL     OW16673   6.460   3.736   8.375  0.0759 -0.1672  0.4465
 5160SOL    HW116674   6.492   3.666   8.432 -1.6759  0.3069  2.1372
 5160SOL    HW216675   6.391   3.694   8.324  0.1808 -0.0775  0.2311
 5161SOL     OW16676   8.450   2.607   7.676  0.6593  0.4780  0.1901
 5161SOL    HW116677   8.390   2.660   7.728  0.2959  1.3317 -1.0634
 5161SOL    HW216678   8.411   2.519   7.676 -0.4901  0.9706 -0.4352
 5162SOL     OW16679   6.165   4.111   3.592  0.3801  0.1364 -0.6720
 5162SOL    HW116680   6.226   4.138   3.523  0.7012 -0.0402 -0.4596
 5162SOL    HW216681   6.198   4.026   3.621  0.6535  0.5217  0.1712
 5163SOL     OW16682   6.600   0.874   0.227  0.2448  0.0889  0.0592
 5163SOL    HW116683   6.609   0.890   0.133 -1.7031 -0.9781 -0.3699
 5163SOL    HW216684   6.599   0.962   0.266  0.4514  0.5664 -0.9805
 5164SOL     OW16685   7.417   3.336   1.988  0.3379 -0.4508 -0.3031
 5164SOL    HW116686   7.429   3.384   1.906 -0.7940 -1.8061 -1.3064
 5164SOL    HW216687   7.457   3.392   2.054  1.3393  0.6642 -1.7721
 5165SOL     OW16688   6.024   5.340   1.856  0.0818  0.4929 -0.3345
 5165SOL    HW116689   5.991   5.428   1.872 -1.9236 -0.7510  4.4214
 5165SOL    HW216690   5.946   5.284   1.859  1.2372 -1.5547 -3.4424
 5166SOL     OW16691   2.727   6.716   4.835 -0.1982  0.2654 -0.2136
 5166SOL    HW116692   2.727   6.811   4.828  0.5540  0.5144  2.1901
 5166SOL    HW216693   2.635   6.693   4.850 -0.0351  0.9977  2.3472
 5167SOL     OW16694   3.501   2.732   7.764  0.5506 -0.3018 -0.1581
 5167SOL    HW116695   3.555   2.711   7.688 -0.7715  3.3791 -2.3683
 5167SOL    HW216696   3.412   2.710   7.737  0.2387 -0.4905  0.9859
 5168SOL     OW16697   4.073   1.423   1.365  0.5872  0.5761  0.4337
 5168SOL    HW116698   4.018   1.501   1.363 -1.2313 -0.6682 -0.7960
 5168SOL    HW216699   4.155   1.453   1.405 -0.6145  2.7192  1.4902
 5169SOL     OW16700   0.137   6.585   6.328 -0.0769  0.0472  0.7621
 5169SOL    HW116701   0.182   6.670   6.326  2.3363 -1.1513  0.2063
 5169SOL    HW216702   0.165   6.542   6.247 -0.6569 -1.5632  1.3812
 5170SOL     OW16703   2.348   4.377   6.698  0.1810 -0.3254  0.4000
 5170SOL    HW116704   2.428   4.329   6.677 -0.2830 -0.0520 -2.3665
 5170SOL    HW216705   2.376   4.467   6.714  0.3818  0.1155 -2.0384
 5171SOL     OW16706   7.752   4.165   1.203  0.1687 -0.4744 -0.1419
 5171SOL    HW116707   7.732   4.258   1.204  0.3638 -0.3899 -1.9430
 5171SOL    HW216708   7.808   4.152   1.280  0.2078  0.8963  0.0833
 5172SOL     OW16709   0.544   0.159   4.060 -0.3188  0.2964  0.0661
 5172SOL    HW116710   0.625   0.205   4.082 -0.5536  1.5369 -1.4609
 5172SOL    HW216711   0.491   0.224   4.015 -2.1942 -0.4896  1.0207
 5173SOL     OW16712   3.473   6.463   2.113 -0.1746  0.1611 -0.1777
 5173SOL    HW116713   3.429   6.466   2.198  0.3966  2.9794  0.1267
 5173SOL    HW216714   3.556   6.419   2.131  0.2451  1.3300  0.9378
 5174SOL     OW16715   4.473   7.091   2.584 -0.1897  0.8335  0.1708
 5174SOL    HW116716   4.385   7.066   2.555  0.3131 -1.5697  0.4939
 5174SOL    HW216717   4.464   7.107   2.678  0.1148 -2.1313  0.8108
 5175SOL     OW16718   0.488   3.699   2.455 -0.1050 -0.1044 -0.1822
 5175SOL    HW116719   0.577   3.718   2.484 -0.1840 -0.8837  0.6023
 5175SOL    HW216720   0.437   3.776   2.481 -0.2224 -0.8620  2.0157
 5176SOL     OW16721   3.653   5.682   6.697  0.5211 -0.5342  0.0957
 5176SOL    HW116722   3.693   5.649   6.616  0.8056  0.5252 -0.2077
 5176SOL    HW216723   3.639   5.603   6.750 -0.2111 -1.3154 -1.2058
 5177SOL     OW16724   6.415   7.227   3.015 -0.4766  0.3194  0.0315
 5177SOL    HW116725   6.397   7.136   3.041  1.8134 -0.2433 -0.1686
 5177SOL    HW216726   6.484   7.220   2.950  0.4437  2.2649  0.7335
 5178SOL     OW16727   6.614   2.942   0.922  0.2122 -0.2601  0.4350
 5178SOL    HW116728   6.627   2.970   0.832  0.1870  1.2537  0.8670
 5178SOL    HW216729   6.690   2.976   0.969 -0.3702  0.0337  1.1910
 5179SOL     OW16730   4.895   3.045   6.615  0.0056 -0.1959  0.4262
 5179SOL    HW116731   4.897   2.962   6.663 -1.9928  0.7636  2.3661
 5179SOL    HW216732   4.806   3.049   6.578  0.9097 -0.0524 -1.9063
 5180SOL     OW16733   5.128   5.419   2.129  0.3058  0.0326  0.4985
 5180SOL    HW116734   5.157   5.501   2.090  1.6789 -0.3964  0.5624
 5180SOL    HW216735   5.144   5.430   2.223 -0.3601  0.0244  0.6164
 5181SOL     OW16736   3.960   5.542   1.736 -0.1308  0.9739 -0.2208
 5181SOL    HW116737   3.932   5.504   1.653  2.0119  0.9167 -0.9666
 5181SOL    HW216738   3.946   5.636   1.725  2.2276  1.2514 -1.6049
 5182SOL     OW16739   0.584   1.360   3.545 -0.1110  0.1963 -0.0173
 5182SOL    HW116740   0.529   1.322   3.477 -0.2835 -0.0683  0.2684
 5182SOL    HW216741   0.576   1.455   3.533  0.6604  0.1556 -1.0074
 5183SOL     OW16742   4.287   3.470   0.461  0.0725 -0.5136 -0.6499
 5183SOL    HW116743   4.302   3.375   0.464  0.2035 -0.4866 -0.3567
 5183SOL    HW216744   4.191   3.479   0.459 -0.0413 -0.6223  1.7071
 5184SOL     OW16745   6.032   0.459   3.742 -0.2251  0.0989  0.0465
 5184SOL    HW116746   6.027   0.379   3.690  0.7843  0.1176 -0.1129
 5184SOL    HW216747   5.959   0.513   3.712 -0.5208 -0.4937 -0.3043
 5185SOL     OW16748   5.557   5.153   5.414  0.2061  0.1786 -0.3995
 5185SOL    HW116749   5.539   5.093   5.486 -1.2970 -0.2927 -1.1292
 5185SOL    HW216750   5.653   5.159   5.411  0.4720 -2.6928 -0.6884
 5186SOL     OW16751   7.256   0.869   1.890 -0.6086  0.4245  0.1403
 5186SOL    HW116752   7.197   0.847   1.962  0.2044  0.4413  0.8279
 5186SOL    HW216753   7.309   0.791   1.877 -0.8361  0.3746 -0.5419
 5187SOL     OW16754   7.627   7.174   2.921 -0.6629  0.3703 -0.4055
 5187SOL    HW116755   7.706   7.152   2.969  0.3824 -0.3371 -2.3452
 5187SOL    HW216756   7.610   7.097   2.867 -1.6139  1.2345 -1.3744
 5188SOL     OW16757   3.626   5.864   3.850 -0.1830 -0.1363 -0.0298
 5188SOL    HW116758   3.712   5.846   3.889  0.4377 -0.0343 -1.3101
 5188SOL    HW216759   3.643   5.874   3.757 -1.7681 -1.2536 -0.4791
 5189SOL     OW16760   5.316   5.595   6.229  0.3834  0.4434  0.3384
 5189SOL    HW116761   5.353   5.611   6.316 -0.1478 -0.9412  0.8428
 5189SOL    HW216762   5.391   5.602   6.170  1.2160 -0.9050  1.1779
 5190SOL     OW16763   6.924   4.235   7.660 -0.4194  0.1993 -0.1122
 5190SOL    HW116764   6.922   4.309   7.599 -3.7688  0.6681  0.3557
 5190SOL    HW216765   6.872   4.265   7.735  0.1545 -1.8067  1.1649
 5191SOL     OW16766   0.556   0.762   0.051 -0.4522 -0.5179 -0.2993
 5191SOL    HW116767   0.488   0.700   0.026 -1.8254  0.8137 -0.0289
 5191SOL    HW216768   0.596   0.724   0.129 -2.3418 -0.3569  0.8199
 5192SOL     OW16769   1.059   6.156   6.698  0.2797  0.8470 -0.0509
 5192SOL    HW116770   1.143   6.187   6.734  0.4088 -0.5867  0.9746
 5192SOL    HW216771   1.025   6.097   6.766 -1.4631  1.2371 -0.5615
 5193SOL     OW16772   8.241   5.686   0.350  0.0352 -0.7335  0.0648
 5193SOL    HW116773   8.295   5.671   0.273  0.2431 -1.0140  0.2653
 5193SOL    HW216774   8.161   5.726   0.315 -0.3003 -1.7993 -0.4189
 5194SOL     OW16775   3.823   5.114   2.469 -0.0723 -0.3019 -0.1625
 5194SOL    HW116776   3.819   5.200   2.426  3.2862  1.0029  1.7935
 5194SOL    HW216777   3.892   5.067   2.422 -0.1415 -0.9595  0.3850
 5195SOL     OW16778   0.492   0.235   0.401 -0.2725 -0.3458 -0.4761
 5195SOL    HW116779   0.400   0.217   0.422 -0.3918  0.4299 -0.2959
 5195SOL    HW216780   0.516   0.306   0.461 -0.4552  1.5480 -2.5427
 5196SOL     OW16781   2.805   3.554   7.853 -0.2362 -0.3550 -0.0871
 5196SOL    HW116782   2.890   3.535   7.812  0.3105 -0.8971  1.2677
 5196SOL    HW216783   2.768   3.624   7.798  0.6342 -0.7906 -1.2813
 5197SOL     OW16784   6.486   5.256   5.701  0.4213  0.0458 -0.1224
 5197SOL    HW116785   6.397   5.222   5.700  0.3444  0.2118 -1.9261
 5197SOL    HW216786   6.476   5.349   5.679  1.1025 -0.2078 -1.6441
 5198SOL     OW16787   2.519   5.911   1.776 -0.1249  0.3058  0.1452
 5198SOL    HW116788   2.519   6.007   1.774  0.1394  0.2992 -0.4675
 5198SOL    HW216789   2.587   5.888   1.839 -0.7415  0.5241  0.9018
 5199SOL     OW16790   5.534   4.568   2.075 -0.7487  0.3438  0.1169
 5199SOL    HW116791   5.531   4.663   2.067 -1.9189  0.2143 -1.3646
 5199SOL    HW216792   5.533   4.552   2.170  1.3398  1.8166  0.4662
 5200SOL     OW16793   3.341   0.092   4.946  0.1152 -0.1729  0.0563
 5200SOL    HW116794   3.300   0.027   5.003 -1.7644 -0.8411 -1.9267
 5200SOL    HW216795   3.385   0.040   4.878 -1.0749  0.5492 -1.3291
 5201SOL     OW16796   2.403   3.369   5.410  0.3923 -0.1586 -0.6835
 5201SOL    HW116797   2.427   3.406   5.494  0.0398 -2.6709  0.6239
 5201SOL    HW216798   2.310   3.389   5.401  0.7669  1.4880 -1.3007
 5202SOL     OW16799   0.946   1.096   3.739  0.6809 -0.1540 -0.4305
 5202SOL    HW116800   1.040   1.099   3.722  0.6732  0.2074 -0.4236
 5202SOL    HW216801   0.924   1.003   3.737  1.1846 -0.2962  0.3405
 5203SOL     OW16802   2.157   4.490   0.611 -0.3432  0.2706  0.3053
 5203SOL    HW116803   2.176   4.415   0.555  1.4205 -0.8365  2.2168
 5203SOL    HW216804   2.102   4.454   0.681  0.0750  0.8833  0.9611
 5204SOL     OW16805   0.399   0.505   0.056  0.3797  0.6730 -0.5572
 5204SOL    HW116806   0.374   0.554   0.134  1.1940  2.3175 -1.2683
 5204SOL    HW216807   0.333   0.527  -0.009  0.5932  0.6097 -0.8001
 5205SOL     OW16808   1.912   0.617   4.057 -0.0283 -0.1400  0.7095
 5205SOL    HW116809   1.988   0.639   4.111  0.8121 -1.0943 -0.0363
 5205SOL    HW216810   1.889   0.527   4.083  0.2521 -0.5346 -0.3292
 5206SOL     OW16811   1.433   0.359   5.796 -0.1846  0.4867  1.0096
 5206SOL    HW116812   1.431   0.285   5.857  1.2037  1.1059  1.8697
 5206SOL    HW216813   1.346   0.399   5.805 -0.3329  0.0061  1.8862
 5207SOL     OW16814   3.595   0.170   1.338  0.2595  0.3569 -0.3668
 5207SOL    HW116815   3.636   0.256   1.328 -0.5686  0.7896 -0.1624
 5207SOL    HW216816   3.566   0.168   1.429 -0.1212  0.0485 -0.4912
 5208SOL     OW16817   2.191   3.803   8.195 -0.2874  0.3953  0.8536
 5208SOL    HW116818   2.124   3.734   8.190  0.2216 -0.0587  0.0011
 5208SOL    HW216819   2.155   3.868   8.255 -0.6862 -0.7166  1.8430
 5209SOL     OW16820   4.034   4.746   0.033 -0.8191  0.3172  0.6262
 5209SOL    HW116821   4.080   4.663   0.045 -0.9522  0.3441  1.3610
 5209SOL    HW216822   4.008   4.745  -0.059  0.3142  0.1373  0.2896
 5210SOL     OW16823   6.284   6.481   7.002  0.1072 -0.6157 -0.1844
 5210SOL    HW116824   6.278   6.459   7.095  1.3630  1.5444  0.4845
 5210SOL    HW216825   6.366   6.443   6.973  0.4072 -0.0881 -0.0318
 5211SOL     OW16826   0.981   4.598   1.514  0.2716 -0.0897  0.7105
 5211SOL    HW116827   0.946   4.591   1.602  0.8025 -1.4436  0.8429
 5211SOL    HW216828   0.907   4.627   1.461 -0.6415 -1.3336  1.2482
 5212SOL     OW16829   6.709   1.882   8.146  0.3846 -0.2489 -0.0958
 5212SOL    HW116830   6.736   1.973   8.153  0.6754 -0.3926  0.7262
 5212SOL    HW216831   6.783   1.839   8.103  0.1762 -0.0735 -0.6415
 5213SOL     OW16832   5.619   4.714   1.772 -0.0942 -0.3942 -0.2976
 5213SOL    HW116833   5.528   4.733   1.798 -0.3460 -3.4987  1.6715
 5213SOL    HW216834   5.654   4.799   1.744 -3.4154  1.0329 -0.6340
 5214SOL     OW16835   1.827   2.676   2.305 -0.0195  0.2873  0.1331
 5214SOL    HW116836   1.756   2.629   2.349 -1.7418  1.6764 -1.0222
 5214SOL    HW216837   1.848   2.748   2.364 -0.5823  0.6922 -0.1486
 5215SOL     OW16838   3.210   2.120   0.519 -0.2200  0.7675 -0.1542
 5215SOL    HW116839   3.232   2.031   0.493 -1.4875  0.4572 -0.2162
 5215SOL    HW216840   3.290   2.171   0.501  0.1276 -0.1221 -1.2210
 5216SOL     OW16841   7.679   8.188   5.515  0.0578  0.2253 -0.4002
 5216SOL    HW116842   7.750   8.251   5.527 -0.4615  0.9921 -1.1880
 5216SOL    HW216843   7.599   8.240   5.520 -0.3786 -0.3314 -1.2224
 5217SOL     OW16844   4.608   0.752   7.723  0.0529 -0.5300 -0.1264
 5217SOL    HW116845   4.678   0.766   7.660  1.0747  0.7688  1.2293
 5217SOL    HW216846   4.584   0.839   7.753  0.1149 -1.1135  1.7746
 5218SOL     OW16847   7.648   5.679   4.723  0.1185 -0.4612 -0.0886
 5218SOL    HW116848   7.710   5.708   4.657 -1.1042  1.9048 -0.2927
 5218SOL    HW216849   7.589   5.619   4.677  1.3055 -1.5275 -0.2547
 5219SOL     OW16850   1.230   7.817   6.199 -0.0556 -0.1909  0.3488
 5219SOL    HW116851   1.173   7.894   6.197  0.5357  0.2759 -2.0788
 5219SOL    HW216852   1.207   7.769   6.119  0.2542 -2.0864  1.3227
 5220SOL     OW16853   2.425   8.210   3.398  0.0153 -0.2934  0.1022
 5220SOL    HW116854   2.333   8.222   3.423  0.1324  0.1934  0.3281
 5220SOL    HW216855   2.423   8.146   3.327 -0.5920  0.4446 -0.5682
 5221SOL     OW16856   7.371   3.087   0.854 -0.2261  0.2561  0.1133
 5221SOL    HW116857   7.290   3.130   0.880 -0.5333 -0.7509  0.9317
 5221SOL    HW216858   7.440   3.139   0.894 -0.5123  0.6844  0.0563
 5222SOL     OW16859   4.574   6.912   5.931 -0.3434  0.0451  0.2250
 5222SOL    HW116860   4.593   6.823   5.961  0.7780 -0.3010 -1.3405
 5222SOL    HW216861   4.614   6.969   5.996  1.6746 -0.6595 -0.3076
 5223SOL     OW16862   6.986   7.648   0.851 -0.1084 -0.1914  0.3165
 5223SOL    HW116863   6.975   7.600   0.933  1.4295  0.3357  0.8571
 5223SOL    HW216864   7.007   7.580   0.786 -1.4163 -0.6195  0.3032
 5224SOL     OW16865   3.936   8.571   7.343  0.0593 -0.1170  0.7391
 5224SOL    HW116866   4.003   8.585   7.410 -1.4458 -0.3929  2.3920
 5224SOL    HW216867   3.967   8.496   7.293  1.6696  0.6679  0.5091
 5225SOL     OW16868   6.333   6.994   7.287  0.0546 -0.0910  0.3226
 5225SOL    HW116869   6.338   6.936   7.210  0.7171  2.2043 -1.4917
 5225SOL    HW216870   6.425   7.008   7.311 -0.1588 -1.1979  1.9447
 5226SOL     OW16871   1.747   1.173   2.953 -0.1669  0.0287 -0.3454
 5226SOL    HW116872   1.709   1.141   2.871 -1.0114  0.0031  0.0470
 5226SOL    HW216873   1.774   1.262   2.934  0.3653 -0.2380 -0.8741
 5227SOL     OW16874   6.590   1.718   7.449 -0.1263  0.0589  0.3815
 5227SOL    HW116875   6.599   1.692   7.357 -0.9491 -1.2426  0.6453
 5227SOL    HW216876   6.679   1.742   7.476  0.7157 -2.4161  0.0612
 5228SOL     OW16877   0.313   0.683   4.256 -0.2551 -0.0850  0.2341
 5228SOL    HW116878   0.371   0.703   4.330 -0.2374  0.6499  0.0307
 5228SOL    HW216879   0.241   0.745   4.264 -2.1297 -2.3082  1.6563
 5229SOL     OW16880   4.222   3.078   2.062  0.0569  0.4517  0.0442
 5229SOL    HW116881   4.258   3.043   1.981 -0.7516  0.3439 -0.2742
 5229SOL    HW216882   4.241   3.172   2.057  0.1402  0.4237 -0.1972
 5230SOL     OW16883   7.403   6.093   5.818  0.3826  0.7924 -1.0644
 5230SOL    HW116884   7.365   6.142   5.746 -1.4163  1.1383  0.0354
 5230SOL    HW216885   7.438   6.160   5.877 -0.3049  0.6662 -0.5003
 5231SOL     OW16886   5.377   2.903   3.629 -0.5929  0.8493  0.3839
 5231SOL    HW116887   5.428   2.983   3.615 -0.9753  1.0960  0.3623
 5231SOL    HW216888   5.292   2.935   3.659 -0.0686  0.3661  2.5011
 5232SOL     OW16889   3.060   0.281   1.869 -0.0672  0.0567  0.0762
 5232SOL    HW116890   3.098   0.195   1.891 -0.2337  0.0291  0.2577
 5232SOL    HW216891   3.135   0.340   1.870  0.5473 -0.5522 -2.8054
 5233SOL     OW16892   7.321   3.607   0.301  0.0233  0.0866 -0.1470
 5233SOL    HW116893   7.269   3.641   0.228  1.1552 -0.9741 -1.5028
 5233SOL    HW216894   7.311   3.512   0.296 -0.3438  0.0021  1.4822
 5234SOL     OW16895   0.263   2.767   1.567 -0.1499 -0.1297 -0.1242
 5234SOL    HW116896   0.254   2.692   1.626  1.5775  0.5264  1.0696
 5234SOL    HW216897   0.340   2.813   1.599 -0.4248  1.4702 -1.6141
 5235SOL     OW16898   5.177   5.794   1.340  0.1311 -0.4183 -0.4786
 5235SOL    HW116899   5.236   5.860   1.376 -2.1678  0.6146  1.6813
 5235SOL    HW216900   5.156   5.827   1.252 -0.5247  1.4822  0.3353
 5236SOL     OW16901   6.601   6.090   0.424 -0.1507 -0.2439  0.1535
 5236SOL    HW116902   6.616   5.999   0.453  0.1810  0.3203  1.8976
 5236SOL    HW216903   6.561   6.081   0.338 -0.7838 -2.0717  0.5735
 5237SOL     OW16904   6.737   1.434   5.755  0.3019 -0.3916  0.1219
 5237SOL    HW116905   6.817   1.426   5.704 -0.2970 -0.3950 -0.8375
 5237SOL    HW216906   6.699   1.347   5.755  0.6570 -0.5650  1.2084
 5238SOL     OW16907   4.298   3.941   8.597  0.1987 -0.0323 -0.1806
 5238SOL    HW116908   4.377   3.929   8.650  0.0744  0.7604  0.1948
 5238SOL    HW216909   4.273   3.852   8.571  1.0485 -0.3126 -0.0634
 5239SOL     OW16910   2.912   0.544   1.468  0.3738 -0.0661 -0.2638
 5239SOL    HW116911   2.935   0.466   1.519 -0.2409 -0.2836 -0.3131
 5239SOL    HW216912   2.980   0.549   1.401  1.0061  0.0357  0.3737
 5240SOL     OW16913   3.243   4.797   0.963 -0.5080  0.5507 -0.3717
 5240SOL    HW116914   3.165   4.827   1.009 -0.1577 -0.7036  1.1414
 5240SOL    HW216915   3.241   4.701   0.972  2.2053  0.5563  1.5461
 5241SOL     OW16916   2.039   0.779   0.904 -0.0337  0.1456 -0.5751
 5241SOL    HW116917   2.001   0.695   0.879  1.8488 -1.5791  1.8593
 5241SOL    HW216918   2.116   0.788   0.848  1.0271 -0.9395  0.6444
 5242SOL     OW16919   8.166   6.697   2.668 -0.1840  0.0197 -0.0116
 5242SOL    HW116920   8.240   6.751   2.639 -0.3501  1.1620  1.5937
 5242SOL    HW216921   8.132   6.658   2.587  0.9670  1.0118 -1.0132
 5243SOL     OW16922   4.745   8.523   0.834  0.1025  0.4392 -0.3611
 5243SOL    HW116923   4.711   8.550   0.919  1.3816  0.8785  0.0345
 5243SOL    HW216924   4.676   8.469   0.796 -1.1356  1.5418  0.2708
 5244SOL     OW16925   7.528   2.829   4.465  0.6107 -0.3330 -0.1452
 5244SOL    HW116926   7.445   2.839   4.419  0.8374  0.1136 -0.4646
 5244SOL    HW216927   7.548   2.916   4.498  2.0213  0.0887 -1.9543
 5245SOL     OW16928   0.160   7.330   3.742 -0.1413 -0.1467  0.7137
 5245SOL    HW116929   0.227   7.278   3.786  0.1302 -0.2369  0.1985
 5245SOL    HW216930   0.078   7.303   3.782 -0.0676 -1.3577  0.0896
 5246SOL     OW16931   2.652   4.651   6.083  0.6466  0.3653  0.4758
 5246SOL    HW116932   2.588   4.674   6.150 -0.3643  0.7010 -0.5786
 5246SOL    HW216933   2.714   4.592   6.128 -0.7248 -0.4468  1.3684
 5247SOL     OW16934   3.202   5.740   4.161  0.1825 -0.4421  1.1176
 5247SOL    HW116935   3.175   5.812   4.103  0.1918  0.2579  1.9670
 5247SOL    HW216936   3.153   5.664   4.129  0.2562 -0.0951  0.1349
 5248SOL     OW16937   3.474   2.471   4.371 -0.1345 -0.2479  0.3820
 5248SOL    HW116938   3.458   2.402   4.436 -0.6803  0.4463  1.0008
 5248SOL    HW216939   3.457   2.428   4.287 -3.9073 -0.0618  0.8693
 5249SOL     OW16940   4.041   0.156   1.768 -0.4898  0.2171  0.0579
 5249SOL    HW116941   3.986   0.127   1.841 -0.7815 -1.4810 -0.8003
 5249SOL    HW216942   3.989   0.139   1.690  0.9261 -0.6800 -0.7316
 5250SOL     OW16943   2.647   6.083   5.419 -0.0790 -0.4708  0.7346
 5250SOL    HW116944   2.659   6.088   5.324  1.2705 -2.1699  0.7760
 5250SOL    HW216945   2.609   6.168   5.442  1.8552  0.9748 -0.9813
 5251SOL     OW16946   3.404   6.880   6.843  0.2070 -0.1168 -0.0848
 5251SOL    HW116947   3.427   6.969   6.870 -0.6401  0.1793 -0.3106
 5251SOL    HW216948   3.439   6.825   6.913  2.0008  0.2514 -0.6443
 5252SOL     OW16949   2.295   5.712   1.960  0.2113 -0.2684  0.2043
 5252SOL    HW116950   2.242   5.718   1.881  0.1913  0.8211  0.2872
 5252SOL    HW216951   2.352   5.637   1.945  0.2601 -0.0256 -0.8791
 5253SOL     OW16952   3.315   0.403   5.059  0.9365  0.0084 -0.6974
 5253SOL    HW116953   3.263   0.483   5.064  1.3481  0.3113 -1.1662
 5253SOL    HW216954   3.256   0.334   5.088  0.2421  0.3390 -1.2872
 5254SOL     OW16955   2.727   4.895   5.165 -0.0907  0.8089  0.5381
 5254SOL    HW116956   2.665   4.967   5.159 -0.1522  0.7295  0.1768
 5254SOL    HW216957   2.786   4.907   5.090 -0.0365  0.5480  0.5363
 5255SOL     OW16958   4.389   8.584   0.089  0.1042 -0.1659 -0.1526
 5255SOL    HW116959   4.377   8.509   0.147 -0.7681  0.6787  0.7930
 5255SOL    HW216960   4.443   8.550   0.017  1.8492 -1.0673  1.4846
 5256SOL     OW16961   1.269   1.016   7.053 -0.0327  0.1179 -0.7325
 5256SOL    HW116962   1.314   1.088   7.097  1.2952 -1.4309  0.5774
 5256SOL    HW216963   1.190   1.002   7.104  1.2291 -1.3045  0.9458
 5257SOL     OW16964   6.370   0.457   1.772 -0.1525  0.2002 -0.3151
 5257SOL    HW116965   6.464   0.472   1.772 -0.1878  0.4167  0.3254
 5257SOL    HW216966   6.333   0.532   1.818 -0.5282 -0.5830  0.6917
 5258SOL     OW16967   5.508   5.449   8.598  0.3599 -0.0625 -0.7512
 5258SOL    HW116968   5.454   5.510   8.648 -0.0877 -1.0383 -0.0034
 5258SOL    HW216969   5.511   5.487   8.510 -1.0348  0.3551 -0.6534
 5259SOL     OW16970   4.262   0.788   2.078 -0.2289 -0.0796  0.5855
 5259SOL    HW116971   4.182   0.814   2.124  0.6491  0.0294  2.0987
 5259SOL    HW216972   4.299   0.870   2.046  1.1975  0.3712  3.1463
 5260SOL     OW16973   4.702   5.772   3.258 -0.0310 -0.3725  0.0221
 5260SOL    HW116974   4.624   5.820   3.287  1.5088  1.7167  0.9323
 5260SOL    HW216975   4.672   5.723   3.181 -1.7519  2.0750 -1.0065
 5261SOL     OW16976   1.456   3.574   7.670 -0.5476  0.1576 -0.3085
 5261SOL    HW116977   1.394   3.620   7.727  0.7640  0.5050  0.9150
 5261SOL    HW216978   1.428   3.482   7.674 -0.0726  0.0533  1.5276
 5262SOL     OW16979   2.477   1.757   8.260  0.0831  0.3160  0.2791
 5262SOL    HW116980   2.468   1.832   8.319  1.2747 -0.1304  1.0595
 5262SOL    HW216981   2.514   1.688   8.314  0.0958 -0.4773 -0.7176
 5263SOL     OW16982   1.261   3.111   0.866 -1.4681  0.5437  0.8224
 5263SOL    HW116983   1.331   3.083   0.925 -1.2986 -0.4862  0.1568
 5263SOL    HW216984   1.198   3.038   0.867 -1.2808  0.3405 -0.5306
 5264SOL     OW16985   3.260   0.863   2.209 -0.2949  0.7062  0.2475
 5264SOL    HW116986   3.258   0.769   2.229  2.8719  0.5115  0.0916
 5264SOL    HW216987   3.246   0.905   2.294 -2.8925  0.2071  0.1565
 5265SOL     OW16988   4.002   0.400   5.998 -0.1774  0.1148  0.2019
 5265SOL    HW116989   4.038   0.404   6.086  0.9542  0.9407 -0.2678
 5265SOL    HW216990   4.020   0.487   5.961 -0.9736 -0.0926 -0.7099
 5266SOL     OW16991   5.805   4.034   1.898  0.2104 -0.3060 -0.3389
 5266SOL    HW116992   5.818   4.018   1.991 -0.9900  1.4184  0.1729
 5266SOL    HW216993   5.849   4.117   1.881  0.6319 -0.7250 -1.3797
 5267SOL     OW16994   4.757   6.056   5.761  0.0175  0.3126 -0.6187
 5267SOL    HW116995   4.687   6.114   5.790 -1.2717 -1.4675  0.0766
 5267SOL    HW216996   4.768   5.994   5.833 -0.6842 -1.9972 -2.3354
 5268SOL     OW16997   7.140   3.855   6.409 -0.9125 -0.3276 -0.1335
 5268SOL    HW116998   7.156   3.939   6.366 -1.3447 -1.0590 -1.8098
 5268SOL    HW216999   7.227   3.819   6.425 -0.7399 -0.5312 -1.4470
 5269SOL     OW17000   5.934   2.370   3.273  0.1295  0.3157 -0.1898
 5269SOL    HW117001   5.862   2.427   3.243 -0.2372 -0.1900 -0.2754
 5269SOL    HW217002   5.941   2.303   3.205 -0.0063 -0.2298  0.3262
 5270SOL     OW17003   3.475   4.945   1.014  0.3990 -0.1025 -0.0971
 5270SOL    HW117004   3.420   4.898   0.951 -0.5123  0.1122  0.5060
 5270SOL    HW217005   3.463   5.037   0.992 -0.7406  0.0464  0.9786
 5271SOL     OW17006   0.349   5.634   0.338  0.4288 -0.2399  0.3684
 5271SOL    HW117007   0.270   5.602   0.382 -0.0930 -0.2650 -0.5619
 5271SOL    HW217008   0.317   5.688   0.266  1.2327 -1.0977 -0.6660
 5272SOL     OW17009   4.436   2.306   5.321 -0.5637 -0.0630  0.5570
 5272SOL    HW117010   4.452   2.339   5.233 -0.5935  0.8806  0.8982
 5272SOL    HW217011   4.492   2.359   5.378  0.6692 -1.7196  0.9542
 5273SOL     OW17012   1.150   1.936   1.381 -0.3655 -0.0004  0.1783
 5273SOL    HW117013   1.127   2.013   1.433 -1.8682 -0.5048  0.3057
 5273SOL    HW217014   1.245   1.929   1.390 -0.4104  0.8233  1.5917
 5274SOL     OW17015   2.965   8.107   5.982  0.9004  0.3220 -0.2513
 5274SOL    HW117016   3.043   8.096   5.928  0.8437 -2.4123  0.0826
 5274SOL    HW217017   2.983   8.057   6.061 -1.4271 -0.9630 -0.4392
 5275SOL     OW17018   4.887   2.321   0.185  0.2693 -0.0565 -0.3746
 5275SOL    HW117019   4.978   2.305   0.211 -0.5990 -1.7155  1.9811
 5275SOL    HW217020   4.840   2.242   0.212 -1.7626  0.3924 -2.3126
 5276SOL     OW17021   1.161   7.519   7.742  0.1807  0.5273  0.1865
 5276SOL    HW117022   1.148   7.433   7.781  0.2946  0.7271  0.6719
 5276SOL    HW217023   1.073   7.548   7.718  0.0539  0.6000  0.7248
 5277SOL     OW17024   4.657   7.380   6.750  0.1501 -0.8131  0.3971
 5277SOL    HW117025   4.617   7.422   6.826  0.3557 -0.4065  0.2812
 5277SOL    HW217026   4.587   7.377   6.685  0.5690  0.7998 -0.1603
 5278SOL     OW17027   7.650   5.056   7.195 -0.2590 -0.1448  0.1014
 5278SOL    HW117028   7.661   5.024   7.285  1.8921 -0.9879 -0.4007
 5278SOL    HW217029   7.586   4.997   7.157  0.2246 -0.9971  0.5607
 5279SOL     OW17030   7.842   5.373   7.534 -0.5071  0.1657  0.1659
 5279SOL    HW117031   7.767   5.375   7.474 -0.5255  0.1794  0.1892
 5279SOL    HW217032   7.903   5.312   7.493 -0.7892 -0.3174  0.4461
 5280SOL     OW17033   3.498   3.380   8.003  0.1433  0.7591  0.4411
 5280SOL    HW117034   3.570   3.341   7.953 -0.4893  0.3816 -0.1909
 5280SOL    HW217035   3.509   3.345   8.092 -0.4780 -0.9934 -0.1295
 5281SOL     OW17036   5.090   1.071   6.053 -0.3073  0.1663 -0.1047
 5281SOL    HW117037   5.003   1.051   6.017  0.1053  1.1498 -1.7765
 5281SOL    HW217038   5.130   1.129   5.988  1.7321 -0.5062  0.4698
 5282SOL     OW17039   1.303   3.145   7.348  0.7951 -0.4636 -0.6298
 5282SOL    HW117040   1.328   3.053   7.340  0.1347 -0.7027 -0.0911
 5282SOL    HW217041   1.270   3.153   7.438  1.3418  0.4255 -0.4972
 5283SOL     OW17042   0.704   5.903   2.023  0.2998  0.1310 -0.3541
 5283SOL    HW117043   0.737   5.907   2.113  0.8847 -3.4056 -0.2722
 5283SOL    HW217044   0.767   5.847   1.977  0.2071  2.1083 -3.1272
 5284SOL     OW17045   7.491   3.435   0.496  0.4410  0.0708  0.1066
 5284SOL    HW117046   7.560   3.458   0.558  1.8416 -1.1998 -0.9239
 5284SOL    HW217047   7.500   3.498   0.425 -1.2532  1.6151  1.1553
 5285SOL     OW17048   7.277   4.993   1.764  0.9265 -0.2373 -0.7812
 5285SOL    HW117049   7.234   5.079   1.759  0.1514 -0.4688  0.9051
 5285SOL    HW217050   7.366   5.013   1.792  1.1663  0.0873 -1.7388
 5286SOL     OW17051   0.867   7.358   0.413 -0.1140 -0.0014  0.0721
 5286SOL    HW117052   0.783   7.320   0.388  0.5283 -0.7444 -1.0368
 5286SOL    HW217053   0.923   7.347   0.336  1.0697  0.2954  0.8540
 5287SOL     OW17054   7.412   7.697   3.933  0.2243  0.3895  0.0413
 5287SOL    HW117055   7.502   7.715   3.906  0.8902  0.0811  1.8602
 5287SOL    HW217056   7.368   7.782   3.929 -0.0325  0.2148 -2.7942
 5288SOL     OW17057   8.561   2.513   6.428  0.1275  0.0214  0.0460
 5288SOL    HW117058   8.501   2.512   6.502 -0.3820  1.0355 -0.3279
 5288SOL    HW217059   8.542   2.596   6.383  1.0985 -0.1215 -0.6609
 5289SOL     OW17060   5.148   7.005   8.538  0.2633 -0.3752  0.0415
 5289SOL    HW117061   5.158   6.926   8.486 -3.2108 -1.7346  1.1827
 5289SOL    HW217062   5.079   7.054   8.494  1.7732  1.7473 -0.1658
 5290SOL     OW17063   6.385   4.817   8.479  0.3232  0.1997 -0.1611
 5290SOL    HW117064   6.314   4.799   8.419  0.9081 -1.0904 -0.5047
 5290SOL    HW217065   6.374   4.753   8.549  0.1847  1.0861  0.6536
 5291SOL     OW17066   1.098   6.302   0.846 -0.0465 -0.0059 -0.3123
 5291SOL    HW117067   1.121   6.390   0.874 -0.0145 -0.0365 -0.2408
 5291SOL    HW217068   1.038   6.315   0.773  1.7340  0.0693 -1.8257
 5292SOL     OW17069   2.494   8.421   6.151  0.6673  0.1909 -0.0391
 5292SOL    HW117070   2.528   8.510   6.146  2.2149 -0.3606  0.2542
 5292SOL    HW217071   2.571   8.366   6.163 -0.3925 -1.0719  1.3106
 5293SOL     OW17072   6.731   5.337   7.611 -0.2177  0.0526 -0.1619
 5293SOL    HW117073   6.816   5.355   7.571 -0.5849  2.0804 -0.1798
 5293SOL    HW217074   6.702   5.423   7.643 -3.3268 -0.0087 -2.3233
 5294SOL     OW17075   5.678   1.375   5.712  0.6473  0.0894  0.1596
 5294SOL    HW117076   5.618   1.380   5.637 -0.7236 -2.1352  0.9878
 5294SOL    HW217077   5.763   1.401   5.676 -0.1260 -0.0751 -1.9595
 5295SOL     OW17078   5.152   5.516   1.241 -0.1787  0.2152 -0.0293
 5295SOL    HW117079   5.165   5.474   1.326  1.6631 -0.8795 -0.7936
 5295SOL    HW217080   5.182   5.606   1.254  0.9730 -0.1951  0.2682
 5296SOL     OW17081   7.992   2.333   8.024  0.0090  0.2511  0.0151
 5296SOL    HW117082   8.056   2.304   8.089  0.0913 -2.0826 -1.0296
 5296SOL    HW217083   7.910   2.295   8.053 -0.1827  0.1970 -0.5827
 5297SOL     OW17084   7.936   6.384   0.309 -0.0411 -0.3512  0.1911
 5297SOL    HW117085   7.992   6.376   0.231 -1.3266  1.5451 -1.0226
 5297SOL    HW217086   7.960   6.469   0.346  0.2116 -1.0259  1.6375
 5298SOL     OW17087   3.447   8.575   6.211  0.0481  0.0849 -0.0899
 5298SOL    HW117088   3.496   8.512   6.263 -0.6071 -0.2854  0.0924
 5298SOL    HW217089   3.359   8.573   6.248 -0.1745  0.5330 -0.5886
 5299SOL     OW17090   0.896   2.376   5.004  0.1678  0.0586  0.1814
 5299SOL    HW117091   0.840   2.434   4.951 -0.2090 -1.1912 -0.8254
 5299SOL    HW217092   0.966   2.349   4.944  0.9068  0.2502  0.9428
 5300SOL     OW17093   8.463   5.985   5.964 -0.0313 -0.0194 -0.0146
 5300SOL    HW117094   8.527   5.933   5.915  0.6239  2.2993 -1.8169
 5300SOL    HW217095   8.493   5.980   6.055  0.3957 -2.1282 -0.2057
 5301SOL     OW17096   3.238   2.232   7.910 -0.0356 -0.0041 -0.1796
 5301SOL    HW117097   3.264   2.303   7.851  0.0747  0.2287  0.1445
 5301SOL    HW217098   3.175   2.273   7.970  0.1353 -0.1409  0.0965
 5302SOL     OW17099   8.366   6.583   5.835  0.6645  0.0568  0.0623
 5302SOL    HW117100   8.360   6.580   5.930  2.4500 -0.4631  0.1826
 5302SOL    HW217101   8.423   6.510   5.812 -0.3748 -0.3166 -1.4893
 5303SOL     OW17102   2.278   5.952   1.225 -0.1445  0.3012  0.5949
 5303SOL    HW117103   2.212   6.011   1.189 -1.2450  0.1617  2.2857
 5303SOL    HW217104   2.303   5.992   1.308 -0.3070 -1.1743  1.3854
 5304SOL     OW17105   6.141   5.614   2.392 -0.3706  0.6155  0.1779
 5304SOL    HW117106   6.200   5.633   2.465  1.1742  2.1415 -1.3710
 5304SOL    HW217107   6.076   5.685   2.395 -1.2367 -0.1925  0.9597
 5305SOL     OW17108   4.326   6.965   6.994  0.3194  0.0896 -0.2229
 5305SOL    HW117109   4.353   6.992   7.082 -0.5896 -0.1929  0.1547
 5305SOL    HW217110   4.320   7.047   6.945 -2.8599  0.7863  1.0346
 5306SOL     OW17111   0.200   7.585   0.160 -0.2273  0.2357  0.2016
 5306SOL    HW117112   0.224   7.518   0.096 -0.8296  0.3072 -0.1077
 5306SOL    HW217113   0.209   7.668   0.112  0.0791  0.3448  0.4470
 5307SOL     OW17114   3.727   6.507   1.872 -0.1078 -0.5893  0.2409
 5307SOL    HW117115   3.642   6.548   1.886 -0.7549 -0.9429 -2.1888
 5307SOL    HW217116   3.707   6.424   1.829  1.4447 -1.0617  0.3385
 5308SOL     OW17117   6.106   5.241   2.559 -0.0959 -0.0774 -0.1517
 5308SOL    HW117118   6.054   5.312   2.598 -0.2849 -0.5556  0.4951
 5308SOL    HW217119   6.075   5.162   2.604 -0.0186 -0.5934 -0.9910
 5309SOL     OW17120   0.968   7.828   7.931  0.3481  0.6090 -0.0196
 5309SOL    HW117121   0.986   7.735   7.949  1.9818  0.8996  0.0412
 5309SOL    HW217122   1.023   7.849   7.856 -0.9056  1.2566 -0.7877
 5310SOL     OW17123   3.448   7.730   6.877  0.1976  0.1655  0.5379
 5310SOL    HW117124   3.450   7.820   6.844  1.6047  0.0131  0.1467
 5310SOL    HW217125   3.540   7.707   6.890 -0.1410 -1.2122  0.6617
 5311SOL     OW17126   4.108   5.146   0.394  0.1064 -0.8523  0.2652
 5311SOL    HW117127   4.124   5.240   0.392  2.2523 -1.1711  0.1127
 5311SOL    HW217128   4.146   5.113   0.313 -0.8305 -1.8372  0.2019
 5312SOL     OW17129   1.998   8.392   8.436 -0.3365 -0.7971  0.6440
 5312SOL    HW117130   2.052   8.357   8.506 -1.0800 -2.1792  0.5612
 5312SOL    HW217131   1.993   8.321   8.372  1.0236  0.7209 -1.2446
 5313SOL     OW17132   6.345   2.945   3.936  0.3682  0.5640  0.2113
 5313SOL    HW117133   6.359   3.019   3.877 -0.3754 -0.2722 -1.0589
 5313SOL    HW217134   6.361   2.981   4.023 -1.1925  2.5415 -0.2577
 5314SOL     OW17135   2.275   0.812   1.218 -0.2472  0.5079  0.4025
 5314SOL    HW117136   2.226   0.770   1.288 -0.5517 -0.1220 -0.1810
 5314SOL    HW217137   2.362   0.770   1.222 -1.6019 -3.1550 -2.6040
 5315SOL     OW17138   6.462   8.427   4.220  0.7835 -0.1818 -0.2847
 5315SOL    HW117139   6.544   8.472   4.202  0.9765  0.5525  2.0644
 5315SOL    HW217140   6.396   8.480   4.176  0.9362  2.8949  2.7141
 5316SOL     OW17141   4.600   8.586   3.577 -0.1538 -0.5152 -0.4233
 5316SOL    HW117142   4.525   8.611   3.523  0.2625  0.4726 -0.5602
 5316SOL    HW217143   4.639   8.669   3.605 -0.3406 -0.9902  1.3944
 5317SOL     OW17144   2.392   7.121   2.002  0.0962  0.3902  0.2324
 5317SOL    HW117145   2.420   7.167   2.081 -0.4912  0.3777  0.4486
 5317SOL    HW217146   2.410   7.029   2.021  0.1212  0.4044  0.2792
 5318SOL     OW17147   5.695   6.199   0.516  0.5145 -0.2028 -0.0384
 5318SOL    HW117148   5.749   6.120   0.514 -2.6318 -2.5511  0.8058
 5318SOL    HW217149   5.700   6.233   0.426  1.4810 -1.6730 -0.5854
 5319SOL     OW17150   6.632   4.262   1.605  0.2331 -0.2230  0.1848
 5319SOL    HW117151   6.712   4.314   1.602  1.9586 -2.7549 -1.4609
 5319SOL    HW217152   6.563   4.323   1.579  1.7742  1.7574  0.4954
 5320SOL     OW17153   8.216   8.446   4.531 -0.4043  0.0279 -0.3942
 5320SOL    HW117154   8.301   8.421   4.566 -1.0199 -1.1997  0.2781
 5320SOL    HW217155   8.169   8.483   4.605 -0.1405  1.6071 -0.9826
 5321SOL     OW17156   3.715   2.427   6.691 -0.4151 -0.0341 -0.1426
 5321SOL    HW117157   3.742   2.493   6.754 -2.0537  0.2761  0.2827
 5321SOL    HW217158   3.625   2.404   6.717 -1.1540  0.0863 -2.3251
 5322SOL     OW17159   3.136   1.441   2.808 -0.0542 -0.5333  0.0093
 5322SOL    HW117160   3.148   1.397   2.724  0.2029 -0.5683  0.0655
 5322SOL    HW217161   3.059   1.497   2.795  0.5666  0.2072 -0.5573
 5323SOL     OW17162   5.657   8.047   5.689  0.1093  0.0986 -0.4961
 5323SOL    HW117163   5.635   7.986   5.760 -3.0161  1.4876 -0.0928
 5323SOL    HW217164   5.601   8.021   5.616  0.2244  1.2260 -1.0114
 5324SOL     OW17165   2.142   4.133   7.154 -0.4050 -0.2033  0.1567
 5324SOL    HW117166   2.085   4.103   7.083 -0.2660 -1.6076  0.6047
 5324SOL    HW217167   2.228   4.143   7.114 -0.6595  0.5653 -0.2135
 5325SOL     OW17168   7.800   7.860   5.154 -0.0259  0.0484  0.3902
 5325SOL    HW117169   7.824   7.947   5.186  0.1868  0.0257  0.2872
 5325SOL    HW217170   7.707   7.867   5.133  0.4233  0.8141 -1.5066
 5326SOL     OW17171   0.728   1.584   6.540  0.2927  0.0670 -0.2952
 5326SOL    HW117172   0.781   1.520   6.588  0.9499  1.4848  0.9735
 5326SOL    HW217173   0.793   1.639   6.496 -0.2559 -0.0041 -1.2044
 5327SOL     OW17174   3.138   1.747   0.025  0.2036  0.0310  0.1408
 5327SOL    HW117175   3.225   1.769   0.059 -0.3139 -0.0215  1.5219
 5327SOL    HW217176   3.157   1.686  -0.047  1.3235  0.1767  0.2847
 5328SOL     OW17177   5.564   1.129   6.699 -0.5273  0.3036 -0.6850
 5328SOL    HW117178   5.522   1.159   6.618 -0.4852  2.0019 -0.1225
 5328SOL    HW217179   5.636   1.191   6.712 -0.4666 -0.0169  0.5960
 5329SOL     OW17180   0.200   1.523   0.824 -1.1364 -0.8207  0.0973
 5329SOL    HW117181   0.116   1.567   0.837 -0.5651  0.2565  0.2554
 5329SOL    HW217182   0.264   1.594   0.820  0.2229 -1.6946  3.2208
 5330SOL     OW17183   6.814   6.992   1.671  0.3365 -0.2451 -0.0513
 5330SOL    HW117184   6.734   7.045   1.669  2.2459  2.8828 -0.7567
 5330SOL    HW217185   6.813   6.944   1.588 -0.4834  0.2691 -0.3531
 5331SOL     OW17186   3.226   3.649   6.133 -0.7199 -0.2820 -0.0230
 5331SOL    HW117187   3.174   3.666   6.055 -2.4477 -3.8119  0.1240
 5331SOL    HW217188   3.161   3.624   6.199  0.9451 -2.7356  0.8148
 5332SOL     OW17189   4.292   0.722   5.378 -0.4243  0.0640 -0.4081
 5332SOL    HW117190   4.307   0.641   5.329  0.5319 -0.6718  1.0132
 5332SOL    HW217191   4.327   0.791   5.323  2.1037 -0.9086 -0.1352
 5333SOL     OW17192   6.276   3.327   7.774 -0.0187  0.0627  1.0099
 5333SOL    HW117193   6.212   3.261   7.799  1.0045 -1.1146  0.6589
 5333SOL    HW217194   6.285   3.383   7.851 -1.1848  0.0301  1.1827
 5334SOL     OW17195   1.362   3.755   5.832  0.3410  0.2340 -0.5093
 5334SOL    HW117196   1.348   3.850   5.835  1.8788  0.4758  0.1901
 5334SOL    HW217197   1.436   3.743   5.773  0.5716 -0.4687 -0.0974
 5335SOL     OW17198   7.071   5.817   2.525  0.5517 -0.3105 -0.3277
 5335SOL    HW117199   7.001   5.864   2.479  0.6226 -1.0405 -1.2115
 5335SOL    HW217200   7.109   5.882   2.583 -0.7044  0.1729 -0.0089
 5336SOL     OW17201   6.259   0.260   2.147 -0.1738 -0.6551  0.0231
 5336SOL    HW117202   6.341   0.304   2.128 -0.6061  0.0202 -0.3373
 5336SOL    HW217203   6.224   0.305   2.223 -2.1822  1.9101 -2.2136
 5337SOL     OW17204   2.895   6.879   1.123  0.4471  0.1058 -0.0891
 5337SOL    HW117205   2.892   6.813   1.193  0.0676  1.5915  1.3657
 5337SOL    HW217206   2.966   6.850   1.067  1.8253 -0.3420  1.7715
 5338SOL     OW17207   0.407   6.211   6.563 -0.0118  0.4619 -0.0541
 5338SOL    HW117208   0.344   6.284   6.567 -1.4443 -0.7007 -0.3800
 5338SOL    HW217209   0.484   6.248   6.520 -1.1429  1.4895 -1.2867
 5339SOL     OW17210   2.980   7.758   5.052 -0.5742  0.1418  0.1748
 5339SOL    HW117211   3.054   7.777   4.994 -1.7780  0.9686 -1.1604
 5339SOL    HW217212   3.014   7.770   5.140  1.5640 -1.9346 -0.2481
 5340SOL     OW17213   2.348   5.897   7.262 -0.5005 -0.2556 -0.1280
 5340SOL    HW117214   2.290   5.961   7.222 -0.9057 -0.5281  0.0148
 5340SOL    HW217215   2.403   5.865   7.190 -0.4224  0.1094 -0.2338
 5341SOL     OW17216   0.636   2.109   5.918 -0.0497  0.4395 -0.1272
 5341SOL    HW117217   0.629   2.194   5.962  0.4917  0.7463 -0.6209
 5341SOL    HW217218   0.585   2.120   5.837  0.2351  0.3806 -0.3152
 5342SOL     OW17219   5.061   3.815   7.222  0.2553  0.4387 -0.2098
 5342SOL    HW117220   5.037   3.765   7.300 -0.9312 -1.2258 -1.5408
 5342SOL    HW217221   5.152   3.791   7.205 -0.0393 -0.6679 -0.3402
 5343SOL     OW17222   8.461   1.332   6.785  0.5606  0.3508 -0.1885
 5343SOL    HW117223   8.503   1.402   6.735 -0.5170  1.2099  0.0774
 5343SOL    HW217224   8.420   1.376   6.859 -0.6231 -0.4710 -0.3145
 5344SOL     OW17225   6.909   6.617   4.357 -0.3231  0.1313 -0.5843
 5344SOL    HW117226   6.981   6.678   4.342  1.2779 -1.2487  1.0244
 5344SOL    HW217227   6.869   6.646   4.439  0.8461 -1.2615  0.5245
 5345SOL     OW17228   7.919   0.687   4.712 -0.2618  0.2643 -0.8684
 5345SOL    HW117229   7.947   0.745   4.642  1.5237 -0.0712 -0.4649
 5345SOL    HW217230   7.901   0.745   4.786  0.8503  0.3676 -0.6743
 5346SOL     OW17231   0.867   1.627   0.684  0.2280  0.4292  0.0823
 5346SOL    HW117232   0.903   1.569   0.752 -1.1250 -1.4192 -0.6940
 5346SOL    HW217233   0.938   1.687   0.664  1.1819  0.0363  2.0355
 5347SOL     OW17234   5.367   1.390   3.304  0.7574 -0.4023 -0.2300
 5347SOL    HW117235   5.448   1.370   3.351  0.8294  1.4879  0.5572
 5347SOL    HW217236   5.397   1.429   3.221  0.6939  0.7808  0.2828
 5348SOL     OW17237   2.993   6.067   6.419 -0.2534  0.7051 -0.2874
 5348SOL    HW117238   2.909   6.072   6.372 -0.9066 -1.2241  0.5983
 5348SOL    HW217239   3.012   6.158   6.442 -2.7007  1.1003  0.5102
 5349SOL     OW17240   2.274   2.542   3.067 -0.1087  0.2314  0.0659
 5349SOL    HW117241   2.317   2.464   3.102 -1.5178 -1.4515 -1.6790
 5349SOL    HW217242   2.315   2.615   3.112  2.4392 -1.4150  0.6148
 5350SOL     OW17243   0.634   5.680   1.146  0.0576 -0.0660 -0.6444
 5350SOL    HW117244   0.547   5.716   1.132  0.5624  1.6405  0.3752
 5350SOL    HW217245   0.694   5.753   1.133  1.0409 -0.0574  2.7785
 5351SOL     OW17246   6.055   3.099   8.585 -0.8556 -0.3247 -0.5509
 5351SOL    HW117247   6.080   3.090   8.493 -1.4291 -0.3780 -0.7032
 5351SOL    HW217248   5.960   3.087   8.585 -0.8438 -0.4166  0.0618
 5352SOL     OW17249   3.685   3.733   7.928 -0.2646  0.3994 -0.0786
 5352SOL    HW117250   3.673   3.679   7.850 -0.7685 -0.9237  0.8671
 5352SOL    HW217251   3.610   3.792   7.928  0.1804  0.9826 -1.0209
 5353SOL     OW17252   3.919   1.611   1.286 -0.1828 -0.0904 -0.1673
 5353SOL    HW117253   3.906   1.706   1.297 -0.6287 -0.1441 -0.2262
 5353SOL    HW217254   3.833   1.573   1.306  0.3638 -0.6139  1.3689
 5354SOL     OW17255   2.367   5.718   3.984 -0.1882  0.3680 -0.1820
 5354SOL    HW117256   2.404   5.803   3.959  3.4743 -0.6198  1.1239
 5354SOL    HW217257   2.337   5.731   4.074  2.5060 -0.0909  0.9024
 5355SOL     OW17258   7.009   6.539   2.444 -0.4313 -0.3801 -0.3100
 5355SOL    HW117259   6.972   6.572   2.363  1.5518 -0.8897 -1.4952
 5355SOL    HW217260   7.096   6.508   2.420 -0.6281 -2.6852  1.5491
 5356SOL     OW17261   5.610   4.671   7.996  0.2644 -0.7633 -0.0735
 5356SOL    HW117262   5.552   4.646   8.067  0.3769  0.8081  0.6178
 5356SOL    HW217263   5.555   4.721   7.935  0.8444  0.7779  0.6104
 5357SOL     OW17264   1.665   8.444   5.684  0.0393  0.4319 -0.0529
 5357SOL    HW117265   1.711   8.518   5.724 -0.4561  1.2996 -1.0410
 5357SOL    HW217266   1.651   8.471   5.594  1.1798 -1.4925 -0.8732
 5358SOL     OW17267   5.219   7.623   6.237 -0.2323  0.8681  0.0300
 5358SOL    HW117268   5.249   7.535   6.261  1.9416  1.6259  0.3607
 5358SOL    HW217269   5.247   7.633   6.146 -0.2724  1.3005  0.0654
 5359SOL     OW17270   4.639   4.361   3.638  0.4839  0.2680  0.8445
 5359SOL    HW117271   4.675   4.363   3.549  1.1290  1.1849  1.1070
 5359SOL    HW217272   4.580   4.436   3.641  0.9649  0.6335  1.3810
 5360SOL     OW17273   2.506   7.278   2.912  0.2080 -0.0789  0.3413
 5360SOL    HW117274   2.437   7.246   2.969 -0.7975 -0.7649 -1.1837
 5360SOL    HW217275   2.466   7.351   2.864  1.1953  0.8389  0.8615
 5361SOL     OW17276   5.760   1.649   6.823 -0.1186 -0.2020  0.3834
 5361SOL    HW117277   5.827   1.589   6.855  0.0923  0.4838  1.2760
 5361SOL    HW217278   5.709   1.671   6.901  1.7329  3.2120  0.8179
 5362SOL     OW17279   7.012   3.317   8.140 -0.1409  0.6332 -0.0522
 5362SOL    HW117280   7.071   3.297   8.067 -1.4140  1.2178 -1.3018
 5362SOL    HW217281   7.039   3.405   8.168 -0.7727  1.1646 -1.0354
 5363SOL     OW17282   2.676   8.004   3.417  0.5035 -0.5526 -0.0638
 5363SOL    HW117283   2.589   8.035   3.395  0.7485 -1.5771 -2.8733
 5363SOL    HW217284   2.667   7.909   3.426  1.1593 -0.5567  0.7299
 5364SOL     OW17285   2.451   2.268   3.051  0.4804  0.5028 -0.3553
 5364SOL    HW117286   2.529   2.275   2.995  0.5065  2.0196 -0.1797
 5364SOL    HW217287   2.396   2.203   3.007  1.5816 -0.1612 -0.7978
 5365SOL     OW17288   1.702   5.216   8.577  0.1194  0.5123 -0.2133
 5365SOL    HW117289   1.755   5.226   8.498 -0.0529  1.0079 -0.2736
 5365SOL    HW217290   1.725   5.292   8.631  0.3301  0.1055  0.2656
 5366SOL     OW17291   0.315   7.287   3.960  0.1080 -0.6885 -0.0856
 5366SOL    HW117292   0.379   7.268   4.029  0.2241 -1.9649 -0.5205
 5366SOL    HW217293   0.231   7.289   4.006  0.3555  0.2274  0.3602
 5367SOL     OW17294   3.454   3.778   4.043 -0.3145  0.7685  0.0328
 5367SOL    HW117295   3.468   3.799   3.951  1.1681  0.4074  0.1368
 5367SOL    HW217296   3.446   3.863   4.086 -1.0215  0.9389 -0.4192
 5368SOL     OW17297   0.425   6.600   0.183 -0.0488  0.3236  0.4436
 5368SOL    HW117298   0.448   6.609   0.090 -0.2686  1.2353  0.4727
 5368SOL    HW217299   0.493   6.649   0.229 -1.6818  2.6209  0.5565
 5369SOL     OW17300   1.704   3.281   5.174 -0.3935 -0.2075  0.5518
 5369SOL    HW117301   1.750   3.331   5.107  0.5995 -1.1974  0.4830
 5369SOL    HW217302   1.653   3.216   5.126 -1.6573  0.6592  0.6453
 5370SOL     OW17303   6.299   5.377   1.918 -0.3232  0.1956  0.0052
 5370SOL    HW117304   6.212   5.371   1.877 -0.8265 -0.7972  1.1431
 5370SOL    HW217305   6.283   5.420   2.002  0.8772  3.2772 -1.2005
 5371SOL     OW17306   2.535   0.578   2.383 -0.0270  0.5455 -0.2162
 5371SOL    HW117307   2.524   0.663   2.425 -1.1142  0.1994  0.2174
 5371SOL    HW217308   2.629   0.559   2.390  0.3589  2.0414 -0.9907
 5372SOL     OW17309   7.377   7.320   7.473  0.2392  0.3446  0.1500
 5372SOL    HW117310   7.440   7.322   7.545 -0.3053 -1.2981  0.7142
 5372SOL    HW217311   7.295   7.294   7.514 -0.4246  0.7908 -0.8554
 5373SOL     OW17312   6.612   3.211   8.274 -0.1746 -0.1163 -0.1634
 5373SOL    HW117313   6.672   3.278   8.309  0.6251 -0.0796 -1.5022
 5373SOL    HW217314   6.551   3.260   8.219  0.4145 -0.4372 -1.1524
 5374SOL     OW17315   1.570   2.959   4.969 -0.2183 -0.0284 -0.4801
 5374SOL    HW117316   1.541   3.050   4.969 -0.3144 -0.0311 -2.4605
 5374SOL    HW217317   1.493   2.910   5.000  0.0627  0.5844  1.3042
 5375SOL     OW17318   7.432   5.648   8.584 -0.0235 -0.1831  0.0390
 5375SOL    HW117319   7.426   5.553   8.576 -2.0662  0.0698 -2.7131
 5375SOL    HW217320   7.341   5.679   8.580  0.5750  1.9178  0.9828
 5376SOL     OW17321   7.204   5.964   7.071 -0.5180  0.4811  0.0681
 5376SOL    HW117322   7.113   5.935   7.074 -0.9041  1.5200 -0.9112
 5376SOL    HW217323   7.222   5.993   7.160 -1.3856  0.9353  0.1118
 5377SOL     OW17324   0.057   5.056   0.876  0.2096 -0.0266 -0.0971
 5377SOL    HW117325   0.064   5.135   0.822 -1.2500  1.3154  1.5689
 5377SOL    HW217326  -0.037   5.037   0.879  0.3837 -0.8138  0.9263
 5378SOL     OW17327   5.287   0.390   6.476  0.1253 -0.3749  0.8597
 5378SOL    HW117328   5.264   0.316   6.532 -0.9783 -1.0014 -0.3621
 5378SOL    HW217329   5.347   0.352   6.410  2.2817  0.5769  2.1679
 5379SOL     OW17330   8.536   3.005   5.022  0.1062 -0.5150 -0.1020
 5379SOL    HW117331   8.602   2.991   5.090  1.6639 -0.2809 -1.5009
 5379SOL    HW217332   8.586   3.036   4.946 -1.5770 -0.6855 -1.3351
 5380SOL     OW17333   7.641   5.685   0.795 -0.4845 -0.2758  0.0083
 5380SOL    HW117334   7.716   5.650   0.844 -0.6648 -0.3245  0.2525
 5380SOL    HW217335   7.679   5.715   0.712  0.0507  1.0259  0.6932
 5381SOL     OW17336   1.524   4.465   1.499 -0.3458  0.2509 -0.2883
 5381SOL    HW117337   1.558   4.420   1.422  0.3535 -0.8972  0.6610
 5381SOL    HW217338   1.595   4.523   1.527  0.2770 -0.9599  0.7496
 5382SOL     OW17339   6.483   0.583   6.405 -0.1011 -0.1818 -0.3238
 5382SOL    HW117340   6.462   0.568   6.313 -0.4709 -0.9011 -0.1249
 5382SOL    HW217341   6.400   0.571   6.451  0.2187 -0.4884  0.1809
 5383SOL     OW17342   8.596   6.146   3.375  0.2281  1.1887  0.2908
 5383SOL    HW117343   8.554   6.177   3.455 -0.2610 -0.0669  0.5545
 5383SOL    HW217344   8.690   6.157   3.391  0.3446 -1.7271  2.3025
 5384SOL     OW17345   2.269   4.000   5.672 -0.2547  0.2178 -0.5899
 5384SOL    HW117346   2.230   3.930   5.724  0.5172  0.1024 -0.1500
 5384SOL    HW217347   2.194   4.045   5.633 -0.7949 -0.3824 -0.2718
 5385SOL     OW17348   1.522   7.610   1.424  0.2762  0.5714 -0.0032
 5385SOL    HW117349   1.465   7.681   1.454 -0.4454  0.5519 -1.2551
 5385SOL    HW217350   1.585   7.598   1.495 -0.0829  1.9187  0.5722
 5386SOL     OW17351   7.368   7.534   4.277 -0.3512  0.0337  0.0555
 5386SOL    HW117352   7.361   7.492   4.191  0.0557  1.4775 -0.6994
 5386SOL    HW217353   7.293   7.499   4.326 -0.6075 -0.7819 -0.8826
 5387SOL     OW17354   2.619   4.809   2.653  0.1757  0.3880  0.4000
 5387SOL    HW117355   2.632   4.854   2.737 -0.3077 -1.6901  1.6662
 5387SOL    HW217356   2.708   4.795   2.620  0.6236 -1.6725  2.2480
 5388SOL     OW17357   5.606   1.700   0.027  0.7059  0.1157 -0.2424
 5388SOL    HW117358   5.638   1.617   0.062  2.0969  0.4383 -0.6987
 5388SOL    HW217359   5.683   1.743  -0.009 -0.0350  1.5033 -0.2567
 5389SOL     OW17360   7.008   4.979   8.391 -0.0299  0.2201 -0.1421
 5389SOL    HW117361   7.006   5.030   8.310  1.5107 -2.1664 -1.8282
 5389SOL    HW217362   6.928   4.927   8.388  1.2143 -1.7449 -1.5596
 5390SOL     OW17363   7.396   4.229   7.657 -0.0682  0.2574  0.1998
 5390SOL    HW117364   7.472   4.238   7.600  0.6431  1.2727  1.2633
 5390SOL    HW217365   7.426   4.261   7.743 -1.0398 -1.4110  1.2146
 5391SOL     OW17366   1.618   3.889   1.897  0.0913  0.1237 -0.6862
 5391SOL    HW117367   1.583   3.892   1.986  0.2253 -0.4160 -0.6132
 5391SOL    HW217368   1.706   3.925   1.904 -0.5649  1.8576 -0.9376
 5392SOL     OW17369   5.519   0.186   3.317  0.1228 -0.4018 -0.2561
 5392SOL    HW117370   5.550   0.221   3.234  1.2773  1.0627  0.7345
 5392SOL    HW217371   5.589   0.126   3.345  0.4871  0.2893  0.3614
 5393SOL     OW17372   4.880   4.551   1.828  0.2517  0.5633 -0.1815
 5393SOL    HW117373   4.799   4.516   1.865  1.5787  0.7415  3.3077
 5393SOL    HW217374   4.944   4.480   1.840  0.7761  0.5713 -2.4974
 5394SOL     OW17375   4.477   4.081   0.313  0.1805 -0.3840 -0.1746
 5394SOL    HW117376   4.476   4.175   0.328  2.4622 -0.6669  2.3765
 5394SOL    HW217377   4.402   4.048   0.363 -0.3267 -0.0028 -0.6681
 5395SOL     OW17378   6.005   5.513   1.311  1.1827  0.0579 -0.4397
 5395SOL    HW117379   5.917   5.501   1.274  1.4655 -1.3247 -0.7241
 5395SOL    HW217380   6.063   5.517   1.234  1.3055  1.8050 -0.2898
 5396SOL     OW17381   4.736   8.229   2.208  0.1239 -0.1788  0.2908
 5396SOL    HW117382   4.765   8.179   2.131 -0.9258  0.5881 -0.6413
 5396SOL    HW217383   4.645   8.251   2.189 -0.1867 -0.0404  1.8153
 5397SOL     OW17384   4.692   3.595   5.836  0.3880 -0.3751 -0.4243
 5397SOL    HW117385   4.632   3.531   5.876 -0.9385  0.2617 -1.3089
 5397SOL    HW217386   4.758   3.541   5.791  0.9280 -1.0856  1.1667
 5398SOL     OW17387   3.328   3.695   0.867  0.1452  0.4609  0.4177
 5398SOL    HW117388   3.299   3.685   0.958  0.4508 -0.3275  0.4412
 5398SOL    HW217389   3.340   3.605   0.837  0.2801  0.7278 -0.3310
 5399SOL     OW17390   8.312   1.516   2.480  0.2412  0.0429 -0.1835
 5399SOL    HW117391   8.379   1.569   2.437  0.8703  0.3467  1.1079
 5399SOL    HW217392   8.243   1.507   2.415  0.7772  1.1960 -0.9477
 5400SOL     OW17393   7.056   5.090   3.990  0.7874 -0.9977 -0.3684
 5400SOL    HW117394   6.997   5.033   4.041 -2.5800 -0.3312 -3.1630
 5400SOL    HW217395   7.069   5.167   4.045  3.0088 -2.9921  2.2203
 5401SOL     OW17396   7.965   0.506   3.740  0.2633  0.4664  0.3151
 5401SOL    HW117397   7.973   0.414   3.714  0.6311  0.4003  0.6478
 5401SOL    HW217398   7.873   0.516   3.765  0.5194 -0.1600  1.5758
 5402SOL     OW17399   5.519   7.974   1.618  0.3358 -1.2110  0.3018
 5402SOL    HW117400   5.501   8.039   1.686 -0.8611 -0.7314 -0.4395
 5402SOL    HW217401   5.591   7.922   1.653 -0.4923 -1.2315  2.1201
 5403SOL     OW17402   4.625   3.463   7.500  0.1610 -0.6084  0.4722
 5403SOL    HW117403   4.548   3.414   7.528  0.2902 -0.7886  0.5168
 5403SOL    HW217404   4.630   3.537   7.561  0.9382 -1.4748  1.5019
 5404SOL     OW17405   8.047   1.010   8.097 -0.2803  0.1917 -0.1336
 5404SOL    HW117406   8.051   0.915   8.104  1.8467  0.2535  0.1986
 5404SOL    HW217407   7.988   1.038   8.167  0.7548 -0.7797  1.1784
 5405SOL     OW17408   5.731   1.342   6.626  0.1254 -0.6460 -0.0046
 5405SOL    HW117409   5.691   1.410   6.572  1.6533  0.2120 -0.1198
 5405SOL    HW217410   5.785   1.291   6.565 -0.5278 -1.6120  0.1919
 5406SOL     OW17411   4.374   7.502   2.500  0.0235 -0.2112 -0.1932
 5406SOL    HW117412   4.308   7.438   2.472  0.2017 -0.2724 -0.4755
 5406SOL    HW217413   4.325   7.584   2.507 -0.0769 -0.2477 -0.4388
 5407SOL     OW17414   8.399   2.541   3.973 -0.6216 -0.0178  0.0529
 5407SOL    HW117415   8.375   2.448   3.975  0.4671 -0.3227 -0.0806
 5407SOL    HW217416   8.368   2.572   3.888 -2.4631  0.1838  0.7543
 5408SOL     OW17417   1.413   6.396   4.586 -0.2174  0.2431  0.0537
 5408SOL    HW117418   1.325   6.379   4.621  0.3267  1.2834  2.1101
 5408SOL    HW217419   1.471   6.343   4.640  0.4279 -0.9669 -1.7324
 5409SOL     OW17420   0.097   0.248   6.027  0.1045  0.1103 -0.0754
 5409SOL    HW117421   0.044   0.168   6.033  1.1598 -0.5000  1.9005
 5409SOL    HW217422   0.172   0.223   5.973 -0.5082  0.3317 -1.0393
 5410SOL     OW17423   2.396   6.384   5.260  0.2814  0.2748  0.0349
 5410SOL    HW117424   2.329   6.449   5.236 -0.7614 -0.7886 -0.0532
 5410SOL    HW217425   2.479   6.429   5.246 -0.4032  1.8712  0.7679
 5411SOL     OW17426   0.421   7.335   6.461 -0.1512  0.0242  0.2946
 5411SOL    HW117427   0.455   7.299   6.543 -0.0738 -1.1810 -0.2433
 5411SOL    HW217428   0.332   7.301   6.455  0.4078 -1.3221 -0.9290
 5412SOL     OW17429   7.075   6.842   4.734  0.2764  0.0480 -0.3159
 5412SOL    HW117430   7.009   6.777   4.757  0.5432 -0.0793  0.0998
 5412SOL    HW217431   7.158   6.798   4.752  0.4585  0.5177  0.0065
 5413SOL     OW17432   3.519   4.440   2.161 -0.0418 -0.0906 -0.8280
 5413SOL    HW117433   3.444   4.468   2.215  0.7190  0.5095 -0.0501
 5413SOL    HW217434   3.554   4.364   2.207  0.1858 -0.0007 -0.8502
 5414SOL     OW17435   0.734   6.205   0.333 -0.1394 -1.0593 -0.1468
 5414SOL    HW117436   0.788   6.207   0.255  1.3033 -0.6779  0.8271
 5414SOL    HW217437   0.722   6.112   0.351 -0.7446 -1.1525 -0.9782
 5415SOL     OW17438   4.001   4.272   7.094 -0.6289  0.0930  0.4346
 5415SOL    HW117439   3.934   4.318   7.146 -0.2366 -0.9993  1.9890
 5415SOL    HW217440   4.079   4.272   7.150  0.1868 -0.0869 -0.6687
 5416SOL     OW17441   1.159   5.225   7.674  0.0179  0.4545 -0.3699
 5416SOL    HW117442   1.159   5.282   7.752 -0.0298 -0.5235  0.3642
 5416SOL    HW217443   1.218   5.268   7.613 -1.3204  2.1953 -0.5253
 5417SOL     OW17444   5.492   7.612   1.089 -0.1449  0.1578 -0.5057
 5417SOL    HW117445   5.421   7.567   1.135 -0.7074  1.4455 -0.0668
 5417SOL    HW217446   5.449   7.687   1.047  0.9370  0.8649 -0.3713
 5418SOL     OW17447   6.083   4.959   2.616  0.4098 -0.0375 -0.3768
 5418SOL    HW117448   6.035   4.897   2.562  0.5149 -0.3760 -0.0855
 5418SOL    HW217449   6.162   4.978   2.565  0.6795 -0.6274 -0.1893
 5419SOL     OW17450   6.043   8.084   6.370 -0.8096  0.2965 -0.2308
 5419SOL    HW117451   6.036   8.129   6.454 -1.1199  0.3980 -0.3083
 5419SOL    HW217452   6.132   8.102   6.340 -0.1317 -1.0770  0.8363
 5420SOL     OW17453   8.426   1.555   7.374 -0.5425  0.4054  0.2010
 5420SOL    HW117454   8.492   1.557   7.443  1.5586  2.0552 -1.6908
 5420SOL    HW217455   8.404   1.647   7.359 -3.7048 -0.0949  1.0375
 5421SOL     OW17456   6.074   7.212   2.515  0.1488  0.2997  0.0531
 5421SOL    HW117457   6.067   7.195   2.421  1.9422 -0.1899 -0.0309
 5421SOL    HW217458   6.030   7.138   2.556 -1.1008  0.7807 -0.3884
 5422SOL     OW17459   6.590   3.326   7.761 -0.4285  0.2813 -0.2988
 5422SOL    HW117460   6.673   3.320   7.808 -0.3310 -0.8169 -0.5821
 5422SOL    HW217461   6.530   3.368   7.822  0.1019  0.2622  0.2347
 5423SOL     OW17462   1.852   1.373   4.380 -0.2037 -0.2122  0.3285
 5423SOL    HW117463   1.935   1.401   4.343 -0.1465 -1.3996 -0.4809
 5423SOL    HW217464   1.786   1.405   4.319 -0.2451 -0.4225  0.2605
 5424SOL     OW17465   7.429   1.953   1.232 -0.0025 -0.5838 -0.1279
 5424SOL    HW117466   7.405   1.972   1.323  1.8900 -0.2629  0.3466
 5424SOL    HW217467   7.397   2.028   1.183  1.5370  0.7283  0.7557
 5425SOL     OW17468   1.303   3.665   1.885 -0.3880  0.1736  0.0542
 5425SOL    HW117469   1.359   3.647   1.810 -0.7107 -1.5208  0.1889
 5425SOL    HW217470   1.330   3.602   1.951 -0.2941  1.4532  1.2929
 5426SOL     OW17471   3.312   4.069   0.088  0.3642 -0.3520 -0.0942
 5426SOL    HW117472   3.281   4.034   0.004 -0.5760 -0.9309  0.4686
 5426SOL    HW217473   3.343   4.157   0.068  1.6881 -1.0656 -1.3358
 5427SOL     OW17474   3.387   7.788   1.287 -0.6589  0.0637 -0.4049
 5427SOL    HW117475   3.475   7.777   1.253 -0.2433 -3.1702  1.2996
 5427SOL    HW217476   3.329   7.755   1.218 -0.2333 -1.2038 -0.1758
 5428SOL     OW17477   6.022   1.696   3.464  0.2233  0.6528 -0.1791
 5428SOL    HW117478   6.010   1.731   3.553  1.6667  0.7331  0.0076
 5428SOL    HW217479   5.983   1.762   3.407 -0.9950  0.4554  0.3942
 5429SOL     OW17480   4.721   5.071   1.140  1.1749  0.1260  0.1386
 5429SOL    HW117481   4.740   5.163   1.159  1.0633  0.4241 -1.0589
 5429SOL    HW217482   4.637   5.074   1.093  0.8880 -0.6464  0.5915
 5430SOL     OW17483   2.443   1.482   8.302 -0.3721 -0.0236 -0.2839
 5430SOL    HW117484   2.391   1.408   8.331  0.1611  0.0897  1.0701
 5430SOL    HW217485   2.513   1.489   8.367 -0.3054  1.5432 -0.4663
 5431SOL     OW17486   1.953   0.264   1.003 -0.0354  1.1482 -0.1778
 5431SOL    HW117487   1.889   0.265   1.075  0.1387  1.2364 -0.0243
 5431SOL    HW217488   2.037   0.251   1.045  0.0126  0.6790 -0.4160
 5432SOL     OW17489   6.394   7.186   1.349 -0.9389  0.0884  0.6265
 5432SOL    HW117490   6.381   7.148   1.436 -0.7487 -0.3400  0.4708
 5432SOL    HW217491   6.305   7.208   1.320 -0.9427  0.8996  1.2175
 5433SOL     OW17492   1.080   6.641   8.236  0.0698 -0.4656  0.8727
 5433SOL    HW117493   1.147   6.687   8.285  0.7717 -0.5153 -0.0038
 5433SOL    HW217494   1.074   6.555   8.278  0.3785 -0.3733  1.1085
 5434SOL     OW17495   4.614   8.591   7.525 -0.7962 -0.0435 -0.4901
 5434SOL    HW117496   4.623   8.658   7.593  0.9222  1.3622 -2.0069
 5434SOL    HW217497   4.644   8.510   7.567  0.5368  0.8469  0.3426
 5435SOL     OW17498   5.663   5.699   2.892 -0.1843  0.3556 -0.0756
 5435SOL    HW117499   5.663   5.632   2.824  1.8230  0.9679 -0.7357
 5435SOL    HW217500   5.664   5.650   2.975 -1.6976 -0.3839 -0.4485
 5436SOL     OW17501   0.568   7.661   4.825  0.3615  0.7377  0.6352
 5436SOL    HW117502   0.590   7.574   4.856 -0.2445  0.3173 -0.0867
 5436SOL    HW217503   0.649   7.695   4.787  0.1438 -0.2657 -0.7895
 5437SOL     OW17504   2.094   3.508   2.350 -0.5547  0.6032  0.0401
 5437SOL    HW117505   2.167   3.452   2.323 -0.7169  0.1894  0.4465
 5437SOL    HW217506   2.092   3.501   2.445 -0.7137  1.1361  0.0823
 5438SOL     OW17507   5.067   2.597   1.614 -1.3874 -0.2764 -0.0555
 5438SOL    HW117508   4.993   2.539   1.630 -1.9182  0.1834 -0.7731
 5438SOL    HW217509   5.040   2.650   1.539 -1.3428  1.6081  1.1926
 5439SOL     OW17510   8.493   3.752   6.674 -0.2890  0.0096  0.8951
 5439SOL    HW117511   8.489   3.844   6.650 -0.6349 -0.4604 -1.0784
 5439SOL    HW217512   8.581   3.724   6.647 -0.9878 -0.7455 -0.7234
 5440SOL     OW17513   0.781   2.395   4.587  0.5689  0.0841  0.1478
 5440SOL    HW117514   0.843   2.335   4.545  3.0176  0.7810  2.5293
 5440SOL    HW217515   0.710   2.339   4.617 -0.1584 -0.7209 -2.7737
 5441SOL     OW17516   6.643   6.746   1.026  0.0008  0.4124  0.4737
 5441SOL    HW117517   6.679   6.705   0.948  1.0862  0.8220  0.7433
 5441SOL    HW217518   6.673   6.690   1.098  0.6663  1.1176  0.7568
 5442SOL     OW17519   0.588   8.179   6.094  0.1864 -0.3194 -0.4325
 5442SOL    HW117520   0.515   8.216   6.045 -2.1636 -3.3525  0.4412
 5442SOL    HW217521   0.602   8.239   6.167 -1.7808  0.1321 -0.3925
 5443SOL     OW17522   8.328   5.308   1.796  0.0095 -0.7347 -0.0301
 5443SOL    HW117523   8.382   5.237   1.761 -1.1587 -2.1461  0.9146
 5443SOL    HW217524   8.326   5.292   1.891 -0.5209  0.3840  0.1613
 5444SOL     OW17525   2.427   5.475   7.599 -0.8118  0.8233 -0.4534
 5444SOL    HW117526   2.370   5.399   7.608 -0.3240  0.6246  1.4634
 5444SOL    HW217527   2.515   5.441   7.610 -0.3607  1.3128 -2.1974
 5445SOL     OW17528   8.437   4.801   0.632 -0.4860 -0.2299 -0.1876
 5445SOL    HW117529   8.371   4.733   0.621  0.6807 -1.6659  1.1710
 5445SOL    HW217530   8.501   4.784   0.563 -0.7020  0.1509 -0.4876
 5446SOL     OW17531   2.516   1.466   5.584  0.5941  0.2765 -0.3281
 5446SOL    HW117532   2.563   1.451   5.667 -1.1125 -1.2447  0.4455
 5446SOL    HW217533   2.489   1.378   5.556  0.2532  0.8714 -1.9865
 5447SOL     OW17534   8.585   5.872   7.918  0.2082  0.2836  0.0863
 5447SOL    HW117535   8.531   5.800   7.950  0.3971  1.0790  2.4173
 5447SOL    HW217536   8.532   5.950   7.933  0.7516  0.7865 -0.5850
 5448SOL     OW17537   6.344   4.045   6.053 -0.2090 -0.0833  0.2629
 5448SOL    HW117538   6.358   3.982   6.124  0.5243  0.1274  0.3081
 5448SOL    HW217539   6.405   4.018   5.985  1.2058  1.4586  0.8669
 5449SOL     OW17540   8.328   6.413   1.239  0.2368  0.0639 -0.3808
 5449SOL    HW117541   8.357   6.359   1.165 -0.0906 -0.4469 -0.1441
 5449SOL    HW217542   8.258   6.467   1.203 -0.4057 -0.6837 -0.2848
 5450SOL     OW17543   0.947   7.966   4.761  0.1227  0.1624 -0.0997
 5450SOL    HW117544   0.975   8.022   4.688  1.0485  1.8739  1.4952
 5450SOL    HW217545   0.927   8.026   4.832  0.1984 -1.4991  1.4104
 5451SOL     OW17546   3.179   0.616   1.799 -0.4094  0.2416 -0.0608
 5451SOL    HW117547   3.237   0.542   1.819 -1.2593 -1.1296 -2.3368
 5451SOL    HW217548   3.226   0.692   1.834  0.6852 -1.2677  2.0053
 5452SOL     OW17549   6.254   2.857   4.893 -0.1793 -0.2494 -0.4191
 5452SOL    HW117550   6.200   2.887   4.821 -1.2280 -0.0763  0.4113
 5452SOL    HW217551   6.295   2.936   4.928 -2.3728  0.2220  1.3087
 5453SOL     OW17552   6.828   4.633   1.831 -0.0124 -0.1456 -0.0263
 5453SOL    HW117553   6.741   4.636   1.792 -0.4600  0.3443  0.9648
 5453SOL    HW217554   6.862   4.722   1.820 -0.7136  0.4149  1.8779
 5454SOL     OW17555   1.167   0.745   7.248 -0.0391 -0.0028  0.0615
 5454SOL    HW117556   1.118   0.756   7.167 -0.8480  0.1613  0.5579
 5454SOL    HW217557   1.178   0.650   7.257  0.4500 -0.0047 -0.4540
 5455SOL     OW17558   1.995   7.720   1.405  0.1760  0.2721  0.3822
 5455SOL    HW117559   1.920   7.774   1.378 -0.2918 -0.6046 -0.1508
 5455SOL    HW217560   2.052   7.780   1.453 -0.5219  1.1342  0.1721
 5456SOL     OW17561   7.861   1.837   3.695  0.4564  0.1911  0.0312
 5456SOL    HW117562   7.807   1.846   3.616  0.4795 -0.1023 -0.0197
 5456SOL    HW217563   7.870   1.743   3.707  1.1204  0.2372 -0.0734
 5457SOL     OW17564   3.612   1.182   4.953 -0.3239  0.2781 -0.4341
 5457SOL    HW117565   3.612   1.275   4.976  0.1880  0.6313 -1.7922
 5457SOL    HW217566   3.652   1.178   4.866  0.3787 -1.2920 -0.0877
 5458SOL     OW17567   3.405   1.499   8.239  0.5025 -0.0344 -0.3403
 5458SOL    HW117568   3.472   1.457   8.185  0.2534 -0.5852 -0.2383
 5458SOL    HW217569   3.348   1.544   8.177  0.9358  0.3883 -0.4317
 5459SOL     OW17570   1.107   5.660   2.590  0.3865  0.0111 -0.2644
 5459SOL    HW117571   1.140   5.749   2.597  0.2619  0.2548 -2.2365
 5459SOL    HW217572   1.154   5.611   2.658 -2.1803  2.2226  3.5002
 5460SOL     OW17573   4.971   1.740   7.026 -0.3148  0.2546  0.6233
 5460SOL    HW117574   4.902   1.719   6.963 -0.0350 -0.0975  0.4285
 5460SOL    HW217575   4.946   1.691   7.105  0.3941 -0.9602  0.1345
 5461SOL     OW17576   8.289   2.113   4.152 -0.2439  0.1236 -0.6311
 5461SOL    HW117577   8.287   2.020   4.171 -0.1210  0.1150 -0.6619
 5461SOL    HW217578   8.232   2.153   4.218  0.4274  0.1306 -0.0516
 5462SOL     OW17579   5.409   4.105   3.011 -0.1334 -0.7577  0.1866
 5462SOL    HW117580   5.411   4.011   3.030 -0.2385 -0.6270  0.8934
 5462SOL    HW217581   5.493   4.122   2.968  0.1590 -1.0643  0.6187
 5463SOL     OW17582   2.692   4.690   1.171  0.2742  0.4550  0.0312
 5463SOL    HW117583   2.665   4.739   1.093 -0.1691 -0.5148 -0.4510
 5463SOL    HW217584   2.776   4.651   1.148  0.8996  1.4218  0.6173
 5464SOL     OW17585   4.521   5.097   3.574 -0.4289 -0.3371  0.6037
 5464SOL    HW117586   4.594   5.128   3.628  1.1844  0.9431 -2.0751
 5464SOL    HW217587   4.484   5.177   3.536  0.1355 -1.2312 -2.0469
 5465SOL     OW17588   0.136   6.417   1.035 -0.0447 -0.3686  0.0865
 5465SOL    HW117589   0.216   6.370   1.056  0.5771 -0.2105 -1.6990
 5465SOL    HW217590   0.164   6.487   0.975 -1.0871  1.6600  1.8350
 5466SOL     OW17591   5.431   3.242   2.611  0.0502  0.1638 -0.4677
 5466SOL    HW117592   5.466   3.241   2.522  3.3202  1.5114  0.6389
 5466SOL    HW217593   5.370   3.316   2.612 -1.9932 -1.3782 -2.1199
 5467SOL     OW17594   6.193   3.913   0.969 -0.0480  0.0435  0.0768
 5467SOL    HW117595   6.188   4.002   1.003  3.2689  0.2157  0.4102
 5467SOL    HW217596   6.163   3.858   1.041  0.7755  0.7370  0.9616
 5468SOL     OW17597   2.925   1.877   3.844  0.0471  0.6272 -0.7733
 5468SOL    HW117598   2.938   1.857   3.937 -1.7017 -0.6291 -0.7562
 5468SOL    HW217599   2.854   1.942   3.844 -0.6672 -0.1433 -1.2629
 5469SOL     OW17600   4.203   3.092   4.445 -0.3188  0.6314 -0.0554
 5469SOL    HW117601   4.204   2.997   4.461 -1.4059  0.6329  0.0705
 5469SOL    HW217602   4.115   3.110   4.414 -0.3196  1.7093  0.5320
 5470SOL     OW17603   0.911   0.232   7.066 -0.3793 -0.2517 -0.1833
 5470SOL    HW117604   0.938   0.150   7.107  0.6494 -1.9504 -3.8835
 5470SOL    HW217605   0.992   0.284   7.063  0.0899 -1.0140 -1.8192
 5471SOL     OW17606   2.602   6.503   5.503 -0.0030 -0.5044  0.0598
 5471SOL    HW117607   2.671   6.516   5.438 -2.7986  2.5589 -2.6999
 5471SOL    HW217608   2.527   6.473   5.452 -1.9553  0.6034  2.0869
 5472SOL     OW17609   6.540   5.654   1.729  0.0196  0.2746 -0.0639
 5472SOL    HW117610   6.500   5.736   1.700 -0.3390 -0.0780 -0.5861
 5472SOL    HW217611   6.510   5.643   1.819  1.1051  1.3597  0.4482
 5473SOL     OW17612   5.644   6.105   5.201 -0.0847  0.9280  0.3972
 5473SOL    HW117613   5.691   6.176   5.157  0.3311  0.0610 -0.6002
 5473SOL    HW217614   5.555   6.111   5.169  0.3141  0.0283 -0.9616
 5474SOL     OW17615   3.724   7.380   3.345  0.1971 -0.1722  0.3122
 5474SOL    HW117616   3.648   7.414   3.392  0.6378  0.3441  0.6727
 5474SOL    HW217617   3.791   7.368   3.413  0.7521  0.3244 -0.1314
 5475SOL     OW17618   5.300   0.212   2.615 -0.3073 -0.6198 -0.1769
 5475SOL    HW117619   5.315   0.213   2.709  1.8591  0.4758 -0.4771
 5475SOL    HW217620   5.280   0.302   2.593  1.7318 -0.3291 -1.0661
 5476SOL     OW17621   2.601   2.604   1.972  0.3270  0.0690 -0.1111
 5476SOL    HW117622   2.532   2.643   2.026 -0.2875 -0.2935 -0.6306
 5476SOL    HW217623   2.666   2.572   2.035 -0.6912 -0.9362  0.4511
 5477SOL     OW17624   8.524   4.188   6.103  0.1218 -0.2381  0.5394
 5477SOL    HW117625   8.606   4.237   6.097 -0.1093  0.1110  0.2136
 5477SOL    HW217626   8.481   4.223   6.181  0.1530 -0.2320  0.5544
 5478SOL     OW17627   8.135   7.095   4.256 -0.1366 -0.5368  0.3129
 5478SOL    HW117628   8.129   7.156   4.329  0.8875 -0.8366  0.6647
 5478SOL    HW217629   8.140   7.152   4.178 -0.3434 -0.2008  0.5424
 5479SOL     OW17630   4.408   2.592   8.268  0.8686 -0.2325  0.3765
 5479SOL    HW117631   4.389   2.657   8.336  0.5531  1.2520 -1.0566
 5479SOL    HW217632   4.465   2.638   8.207  1.2814 -1.5895 -0.2798
 5480SOL     OW17633   5.556   5.112   3.668  0.4716 -0.1414  0.3208
 5480SOL    HW117634   5.640   5.093   3.710  1.1219 -0.6888 -1.1561
 5480SOL    HW217635   5.511   5.027   3.665  0.5557 -0.1645 -0.3361
 5481SOL     OW17636   4.107   4.502   7.438 -0.2119  0.6396 -0.2711
 5481SOL    HW117637   4.127   4.444   7.511  0.4075  2.5420  1.1412
 5481SOL    HW217638   4.153   4.462   7.364 -1.2753 -1.6033  0.1869
 5482SOL     OW17639   7.145   7.520   6.738  0.3640 -0.4220  0.7161
 5482SOL    HW117640   7.077   7.457   6.715  0.4003 -0.2915  0.2403
 5482SOL    HW217641   7.172   7.495   6.827  0.3111 -1.0102  0.5698
 5483SOL     OW17642   4.056   1.050   5.604 -0.5288  0.5271 -0.5716
 5483SOL    HW117643   4.036   1.094   5.687  0.2746  0.1115 -0.1395
 5483SOL    HW217644   4.115   0.979   5.629 -1.6007 -0.6422 -1.2968
 5484SOL     OW17645   7.669   3.423   5.473  0.0020 -0.2190 -0.1749
 5484SOL    HW117646   7.606   3.477   5.425 -0.1874 -1.0504 -0.9034
 5484SOL    HW217647   7.627   3.337   5.479 -0.2915  0.0266  2.1530
 5485SOL     OW17648   2.365   7.969   0.633 -0.8180 -0.0633 -0.0144
 5485SOL    HW117649   2.332   8.020   0.707  0.9043  1.8085 -0.4639
 5485SOL    HW217650   2.440   7.921   0.668 -0.1617  0.6213 -0.4532
 5486SOL     OW17651   4.421   1.873   1.836 -0.1073  0.0996  0.4253
 5486SOL    HW117652   4.470   1.791   1.828 -0.4884 -0.2317  1.2897
 5486SOL    HW217653   4.457   1.930   1.768 -0.2869 -1.0091 -0.6275
 5487SOL     OW17654   6.890   1.628   3.131 -0.2948  0.1818  0.4373
 5487SOL    HW117655   6.902   1.535   3.112 -1.4479  0.3357 -1.2990
 5487SOL    HW217656   6.979   1.662   3.141  0.5523 -0.2211 -3.8970
 5488SOL     OW17657   5.981   7.445   4.517 -0.4038 -0.5488  0.2097
 5488SOL    HW117658   6.054   7.462   4.457 -0.2527 -1.0148  0.2657
 5488SOL    HW217659   5.963   7.530   4.557 -1.3827  0.1044 -1.4845
 5489SOL     OW17660   2.904   5.351   4.196 -0.3822  0.3268  0.0822
 5489SOL    HW117661   2.945   5.265   4.208 -0.1753  0.6129  1.5921
 5489SOL    HW217662   2.955   5.393   4.126  0.7971  0.0030  0.7235
 5490SOL     OW17663   0.655   3.248   4.857 -0.1733 -0.1998 -0.2379
 5490SOL    HW117664   0.657   3.304   4.780  1.9821 -0.1149 -0.1624
 5490SOL    HW217665   0.625   3.306   4.927 -1.1653 -0.0223 -0.7957
 5491SOL     OW17666   7.093   7.365   4.982 -0.3748  0.1650 -0.3662
 5491SOL    HW117667   7.008   7.324   4.966 -0.1302 -0.2581 -0.6041
 5491SOL    HW217668   7.072   7.450   5.019 -0.8771 -0.5546  1.0706
 5492SOL     OW17669   2.462   4.466   4.820  0.0797 -0.0756 -0.0068
 5492SOL    HW117670   2.448   4.402   4.890  2.0676  0.0947  0.6074
 5492SOL    HW217671   2.442   4.419   4.740 -3.0728 -0.0407  0.6193
 5493SOL     OW17672   2.439   5.058   7.515 -0.1630  0.6965 -0.2147
 5493SOL    HW117673   2.527   5.039   7.547 -0.5773 -0.7344  0.1660
 5493SOL    HW217674   2.389   4.979   7.535 -1.1808  0.9147 -1.7138
 5494SOL     OW17675   5.155   1.285   5.152 -0.0873  0.2609 -0.4284
 5494SOL    HW117676   5.091   1.231   5.198  1.3318 -0.3266  0.9425
 5494SOL    HW217677   5.228   1.226   5.132  0.7624  1.2740 -0.4524
 5495SOL     OW17678   5.830   2.130   4.157 -0.3901  0.0437  0.5339
 5495SOL    HW117679   5.781   2.094   4.232 -0.8887  0.5509  0.4597
 5495SOL    HW217680   5.921   2.112   4.178 -0.6657 -2.6219 -0.2052
 5496SOL     OW17681   1.845   0.276   7.171  0.2231 -0.3997  0.4093
 5496SOL    HW117682   1.862   0.350   7.230 -0.6540  0.4842 -0.3998
 5496SOL    HW217683   1.913   0.283   7.104  2.0079 -2.1482  1.9065
 5497SOL     OW17684   1.932   4.966   6.577  0.0824  0.3286 -0.0952
 5497SOL    HW117685   1.899   4.877   6.581  1.5651 -0.2539 -0.0952
 5497SOL    HW217686   1.862   5.016   6.534 -0.0078 -1.2270 -1.8877
 5498SOL     OW17687   1.002   4.800   0.054  0.0952 -1.0182  0.0597
 5498SOL    HW117688   0.926   4.746   0.034 -0.5763  0.5702 -2.1265
 5498SOL    HW217689   1.077   4.744   0.031 -0.5361 -1.4018 -1.1591
 5499SOL     OW17690   0.019   8.285   5.227  0.4415  0.3622  0.1940
 5499SOL    HW117691   0.089   8.225   5.253 -0.3350 -0.3141  0.7667
 5499SOL    HW217692  -0.025   8.242   5.154 -0.0244  0.2904  0.5106
 5500SOL     OW17693   1.025   2.301   3.091  0.5120  0.2341 -0.4169
 5500SOL    HW117694   1.018   2.383   3.042  0.5861  0.6918  0.3134
 5500SOL    HW217695   1.105   2.311   3.142  0.5128 -0.2882 -0.3151
 5501SOL     OW17696   1.924   8.455   2.358  0.2161 -0.2116  0.0463
 5501SOL    HW117697   1.874   8.524   2.400 -0.0018 -0.0567 -0.4606
 5501SOL    HW217698   2.014   8.488   2.358  0.4500 -0.7737  1.5449
 5502SOL     OW17699   0.155   3.077   1.195 -0.1439 -0.3074  0.0457
 5502SOL    HW117700   0.154   2.984   1.219  1.1683 -0.4685 -0.4192
 5502SOL    HW217701   0.063   3.099   1.181 -0.5163 -1.4319  0.5422
 5503SOL     OW17702   8.443   2.516   1.816  0.0133 -0.5537  0.1620
 5503SOL    HW117703   8.350   2.539   1.816 -0.1490 -1.1363  1.5479
 5503SOL    HW217704   8.488   2.598   1.833 -0.0731  0.1727 -2.6536
 5504SOL     OW17705   7.629   4.019   6.634  0.1590 -0.3922 -0.6050
 5504SOL    HW117706   7.682   4.071   6.574 -0.9573  0.7837 -0.5948
 5504SOL    HW217707   7.692   3.985   6.698  1.1589 -0.5529 -1.6460
 5505SOL     OW17708   8.216   4.408   3.157  0.1575 -0.0047 -0.5499
 5505SOL    HW117709   8.182   4.364   3.235  0.2047 -0.8142 -0.9705
 5505SOL    HW217710   8.210   4.501   3.177  0.2243 -0.2002  0.4424
 5506SOL     OW17711   0.795   2.663   8.399  0.8442  0.0892 -0.1659
 5506SOL    HW117712   0.770   2.610   8.324  3.1304  1.3909 -1.9940
 5506SOL    HW217713   0.726   2.728   8.407 -0.3525 -1.1730  0.0736
 5507SOL     OW17714   2.245   4.346   7.687  0.1429 -0.1908 -0.3625
 5507SOL    HW117715   2.158   4.307   7.675  1.3258 -2.5798 -2.2013
 5507SOL    HW217716   2.294   4.316   7.610  3.2014 -0.7244  1.6583
 5508SOL     OW17717   0.766   1.598   0.290 -0.4179 -0.1531 -0.5351
 5508SOL    HW117718   0.860   1.598   0.275 -0.4866  1.5205 -1.1794
 5508SOL    HW217719   0.734   1.521   0.243  0.6862 -1.1256  0.2546
 5509SOL     OW17720   2.677   8.310   2.207 -0.2594  0.7380 -0.1208
 5509SOL    HW117721   2.742   8.322   2.276  0.4549 -0.5556 -0.5539
 5509SOL    HW217722   2.669   8.397   2.167  1.0366  0.9693  0.0787
 5510SOL     OW17723   1.897   4.391   6.534  0.8141 -0.1895 -0.3739
 5510SOL    HW117724   1.979   4.418   6.493  0.7739 -2.4265 -2.1220
 5510SOL    HW217725   1.921   4.365   6.622  1.8353 -0.0505 -0.6029
 5511SOL     OW17726   2.474   1.217   5.916 -0.2608 -0.3965  0.4609
 5511SOL    HW117727   2.525   1.280   5.865 -0.2267  0.3193  1.3428
 5511SOL    HW217728   2.504   1.230   6.006 -1.7056 -0.2582  0.9483
 5512SOL     OW17729   3.619   0.734   1.389  0.2084 -0.2734  0.0688
 5512SOL    HW117730   3.575   0.713   1.307  1.7452  0.8115 -1.0888
 5512SOL    HW217731   3.570   0.808   1.425  0.4049  0.2190 -0.6523
 5513SOL     OW17732   2.390   7.906   6.000  0.1765  0.0099  0.1430
 5513SOL    HW117733   2.449   7.954   6.057 -2.1141  1.5349  1.3940
 5513SOL    HW217734   2.443   7.882   5.924  2.5419  0.5567  1.5448
 5514SOL     OW17735   7.234   6.469   0.804  0.1137 -0.2797 -0.3005
 5514SOL    HW117736   7.315   6.481   0.754 -0.7016  0.1838 -1.5621
 5514SOL    HW217737   7.254   6.500   0.892  0.6775  1.9128 -1.1571
 5515SOL     OW17738   2.280   4.008   2.339 -0.4471 -0.7351  0.5686
 5515SOL    HW117739   2.262   3.959   2.258 -0.1254 -2.2329  1.3761
 5515SOL    HW217740   2.209   4.073   2.343 -0.2359 -0.3428 -1.1094
 5516SOL     OW17741   2.910   2.107   8.463 -0.3775 -0.1590 -0.2435
 5516SOL    HW117742   2.817   2.105   8.438 -0.4360 -2.0480  0.0292
 5516SOL    HW217743   2.911   2.075   8.553  0.4169  1.2835  0.2876
 5517SOL     OW17744   4.423   3.682   6.298 -0.3253 -0.3486  0.1853
 5517SOL    HW117745   4.449   3.728   6.377 -3.4509  1.4076  0.3437
 5517SOL    HW217746   4.383   3.749   6.242 -1.6955 -2.1977 -1.1932
 5518SOL     OW17747   7.116   3.343   0.736  0.1595 -0.5417  0.0531
 5518SOL    HW117748   7.141   3.415   0.678  1.8080 -0.1232  1.2137
 5518SOL    HW217749   7.099   3.270   0.677 -2.5297  0.9682 -1.2471
 5519SOL     OW17750   8.090   7.105   2.369 -0.1338  0.1517  0.5227
 5519SOL    HW117751   8.186   7.114   2.372 -0.1116  0.1240  0.0434
 5519SOL    HW217752   8.064   7.158   2.294 -0.2914 -1.4935 -0.6364
 5520SOL     OW17753   7.461   6.847   0.302  0.6364  0.3046  0.2010
 5520SOL    HW117754   7.529   6.872   0.365  0.2256  2.2439 -0.0539
 5520SOL    HW217755   7.383   6.835   0.356  0.2154  2.2437  0.1082
 5521SOL     OW17756   0.445   5.470   6.775  0.5195  0.1160 -0.8780
 5521SOL    HW117757   0.466   5.564   6.770  1.1204 -0.0610 -4.2197
 5521SOL    HW217758   0.511   5.429   6.718 -2.0969 -1.8262 -2.7070
 5522SOL     OW17759   2.120   8.528   6.885  0.2357 -0.1773 -0.2817
 5522SOL    HW117760   2.120   8.522   6.790  0.2984  0.1830 -0.3059
 5522SOL    HW217761   2.185   8.596   6.904  0.0983 -0.1279  0.0101
 5523SOL     OW17762   5.091   5.712   8.416  0.2040 -0.1541 -0.5190
 5523SOL    HW117763   5.074   5.740   8.505  0.3247  2.2544 -1.1999
 5523SOL    HW217764   5.006   5.683   8.383  0.1259 -0.8854  0.2956
 5524SOL     OW17765   4.141   6.752   7.011 -0.4288 -0.2641 -0.2456
 5524SOL    HW117766   4.163   6.844   7.020  0.1923 -0.2611 -1.5872
 5524SOL    HW217767   4.107   6.743   6.922 -0.2754 -1.3683 -0.2166
 5525SOL     OW17768   8.539   2.742   5.425  0.1322 -0.4311  0.2337
 5525SOL    HW117769   8.533   2.837   5.438 -0.3707 -0.0872 -2.0201
 5525SOL    HW217770   8.452   2.710   5.449  0.4446 -0.4055  1.4423
 5526SOL     OW17771   8.035   0.160   1.172 -0.6212  0.1488  0.2330
 5526SOL    HW117772   8.125   0.176   1.144 -0.8268  0.4593 -0.2682
 5526SOL    HW217773   8.008   0.084   1.121 -0.6960  0.1613  0.2543
 5527SOL     OW17774   7.480   6.085   6.270 -0.4109 -0.4388 -0.0669
 5527SOL    HW117775   7.542   6.083   6.343 -0.0770 -1.6996 -0.3666
 5527SOL    HW217776   7.400   6.046   6.304 -0.6660  0.1028 -0.0281
 5528SOL     OW17777   5.572   2.365   7.532  0.1325 -0.3332  0.5346
 5528SOL    HW117778   5.663   2.338   7.521  0.3809  1.0170 -1.1271
 5528SOL    HW217779   5.522   2.303   7.479  0.4497  0.8144 -1.1889
 5529SOL     OW17780   1.098   2.828   4.320 -0.0737 -0.1190  0.7150
 5529SOL    HW117781   1.123   2.753   4.374 -2.8239 -0.1773  2.0628
 5529SOL    HW217782   1.090   2.900   4.382 -0.6354  0.4978 -0.0599
 5530SOL     OW17783   1.758   5.736   1.341 -0.1394 -0.4657  0.2102
 5530SOL    HW117784   1.796   5.653   1.371 -1.0189 -0.4924  1.3426
 5530SOL    HW217785   1.683   5.709   1.287 -2.5502 -0.5512  3.2961
 5531SOL     OW17786   6.281   6.067   7.005  0.3171 -0.2023  0.1320
 5531SOL    HW117787   6.345   6.096   6.939  1.1042 -1.6862  0.2090
 5531SOL    HW217788   6.217   6.016   6.955 -1.0040  1.4534  0.0167
 5532SOL     OW17789   7.300   6.246   5.606 -0.2623  0.3785 -1.0733
 5532SOL    HW117790   7.212   6.215   5.626  0.0097 -0.1561 -0.6954
 5532SOL    HW217791   7.315   6.219   5.515 -0.1016 -0.4281 -0.8107
 5533SOL     OW17792   1.303   7.884   5.527  0.3597  0.7245 -0.3303
 5533SOL    HW117793   1.350   7.811   5.568  0.4227  0.8970 -0.0976
 5533SOL    HW217794   1.221   7.845   5.496  0.9951  0.2308 -1.4713
 5534SOL     OW17795   1.109   1.202   1.211 -0.5476  0.1256 -0.1578
 5534SOL    HW117796   1.059   1.283   1.202 -1.3709 -0.2282  0.9597
 5534SOL    HW217797   1.108   1.163   1.123 -0.3278  1.2086 -0.6503
 5535SOL     OW17798   4.201   6.384   2.669 -0.0800 -0.3346  0.1657
 5535SOL    HW117799   4.110   6.373   2.644 -0.1189  3.3805 -2.1279
 5535SOL    HW217800   4.203   6.466   2.718  2.1245  0.3040 -0.8527
 5536SOL     OW17801   6.723   0.807   4.909 -0.5143  0.3701 -0.7221
 5536SOL    HW117802   6.720   0.839   4.819 -0.7591  0.5302 -0.6595
 5536SOL    HW217803   6.667   0.868   4.958  0.1321  0.6747 -0.3393
 5537SOL     OW17804   4.777   4.722   1.053  0.1852 -0.3284  0.1215
 5537SOL    HW117805   4.724   4.785   1.004  1.2912 -1.3106 -2.5108
 5537SOL    HW217806   4.867   4.742   1.028  0.7370 -1.4365  1.1314
 5538SOL     OW17807   4.773   0.602   1.469 -0.2253 -0.0572 -0.0918
 5538SOL    HW117808   4.680   0.626   1.474 -0.4500 -1.1411  1.5227
 5538SOL    HW217809   4.774   0.506   1.471  0.8731 -0.1497 -2.0129
 5539SOL     OW17810   6.901   6.636   6.846 -0.3362  0.0550 -0.5933
 5539SOL    HW117811   6.887   6.731   6.845 -0.2682  0.0875 -2.7497
 5539SOL    HW217812   6.996   6.627   6.839 -0.3621 -0.1636 -0.6533
 5540SOL     OW17813   0.083   8.224   4.257  0.8156  0.0404  0.1920
 5540SOL    HW117814   0.171   8.250   4.284  0.7439  0.5246 -0.0238
 5540SOL    HW217815   0.098   8.166   4.182  0.9798 -0.5988  0.7170
 5541SOL     OW17816   1.570   6.799   6.633 -0.3267  0.2973  0.1475
 5541SOL    HW117817   1.604   6.862   6.696 -0.2803  0.0828  0.3374
 5541SOL    HW217818   1.534   6.728   6.687 -0.5315  0.2409 -0.0606
 5542SOL     OW17819   1.445   2.381   1.290 -0.2309  0.2602 -0.5207
 5542SOL    HW117820   1.535   2.361   1.314 -0.5708 -0.3340  0.3058
 5542SOL    HW217821   1.449   2.409   1.198  0.6654 -0.5938 -0.7447
 5543SOL     OW17822   8.324   5.582   6.384  0.5997  0.0000 -0.0623
 5543SOL    HW117823   8.400   5.636   6.407 -0.9791  1.5690  1.8555
 5543SOL    HW217824   8.258   5.644   6.354 -0.7430 -1.0225  0.6569
 5544SOL     OW17825   0.293   2.510   5.465  0.2981  0.0726 -0.1738
 5544SOL    HW117826   0.238   2.445   5.510  0.1550  1.2068  1.3623
 5544SOL    HW217827   0.306   2.579   5.530 -1.2597  2.6145 -2.3819
 5545SOL     OW17828   3.120   4.969   8.429 -0.3945 -1.1514 -0.5671
 5545SOL    HW117829   3.054   4.916   8.384 -1.2823 -1.7318  1.2727
 5545SOL    HW217830   3.069   5.030   8.483  0.5783 -0.9450  0.1577
 5546SOL     OW17831   8.544   7.819   0.774 -0.3430  0.0834 -0.3421
 5546SOL    HW117832   8.537   7.847   0.866 -0.8709 -1.8883  0.2515
 5546SOL    HW217833   8.526   7.725   0.775  0.9454 -0.2600 -2.2962
 5547SOL     OW17834   0.987   0.818   0.629  0.0666  0.5181  0.3785
 5547SOL    HW117835   1.076   0.829   0.597 -0.1616  1.4122  0.0018
 5547SOL    HW217836   0.995   0.763   0.707  0.7341 -0.9767 -0.7039
 5548SOL     OW17837   2.149   2.964   5.937  0.3509  0.0488 -0.2362
 5548SOL    HW117838   2.135   2.901   5.866  0.1553 -0.0930 -0.0707
 5548SOL    HW217839   2.135   2.914   6.017  0.9706  0.1068 -0.0829
 5549SOL     OW17840   3.014   7.614   7.371 -0.6775  0.0962 -0.4258
 5549SOL    HW117841   3.060   7.638   7.452 -1.0394 -2.7090  0.7169
 5549SOL    HW217842   2.929   7.658   7.377 -0.3479  0.6457  0.2817
 5550SOL     OW17843   7.898   2.948   3.690 -0.1807  0.0434 -0.1063
 5550SOL    HW117844   7.856   3.034   3.697 -0.2540  0.2836 -2.6549
 5550SOL    HW217845   7.825   2.886   3.697 -0.4165  0.2932 -0.2930
 5551SOL     OW17846   3.865   1.466   2.595 -0.5247  0.4831  0.3535
 5551SOL    HW117847   3.879   1.450   2.502  1.2019 -0.9892  0.8131
 5551SOL    HW217848   3.780   1.424   2.614  0.5393 -1.9841  0.0171
 5552SOL     OW17849   7.296   1.315   0.535 -0.1033  0.2324 -0.0701
 5552SOL    HW117850   7.246   1.306   0.454  0.8709 -0.8004 -0.5889
 5552SOL    HW217851   7.291   1.408   0.556  0.4204  0.7147 -1.8630
 5553SOL     OW17852   5.449   7.428   6.921  0.0188 -0.7792  0.1878
 5553SOL    HW117853   5.355   7.443   6.914  0.1154  0.7766  1.5861
 5553SOL    HW217854   5.486   7.514   6.941  1.7197 -1.4021 -0.0633
 5554SOL     OW17855   7.797   8.247   6.644 -0.2435  0.4143 -0.0249
 5554SOL    HW117856   7.819   8.322   6.700  0.0033  0.5254 -0.2685
 5554SOL    HW217857   7.771   8.286   6.561 -0.6676  0.2513  0.0291
 5555SOL     OW17858   2.668   4.833   0.303  0.3329 -0.1033 -0.1510
 5555SOL    HW117859   2.601   4.881   0.254 -0.1023  0.0313  0.5752
 5555SOL    HW217860   2.619   4.778   0.364  0.8959  1.2184  1.5547
 5556SOL     OW17861   2.226   2.142   0.116 -0.3241  0.6691  0.2071
 5556SOL    HW117862   2.246   2.209   0.052  1.4317  0.3921  0.4199
 5556SOL    HW217863   2.260   2.061   0.078 -0.1842  0.3257  1.0393
 5557SOL     OW17864   6.941   2.703   0.058  0.2814  0.4204 -0.4665
 5557SOL    HW117865   6.867   2.758   0.035  1.2653  1.4058 -1.4316
 5557SOL    HW217866   7.018   2.758   0.042  1.1968  0.0737  2.2850
 5558SOL     OW17867   3.711   5.021   1.873  0.0645  0.0935 -0.7685
 5558SOL    HW117868   3.769   5.018   1.797  1.4448 -2.1436  0.2644
 5558SOL    HW217869   3.763   5.061   1.942 -0.1199 -0.5699 -0.2302
 5559SOL     OW17870   6.055   2.511   0.550 -0.3403  0.3343 -0.4808
 5559SOL    HW117871   6.050   2.597   0.590  1.3177  1.3515 -2.2765
 5559SOL    HW217872   6.149   2.493   0.543 -0.6453 -2.0159  0.6082
 5560SOL     OW17873   7.188   0.543   8.460 -0.1370  0.0159  0.2454
 5560SOL    HW117874   7.098   0.520   8.483 -0.1742 -0.6037 -0.4986
 5560SOL    HW217875   7.181   0.632   8.424 -0.2854  0.4017  1.1756
 5561SOL     OW17876   0.495   7.208   3.725 -0.1714  0.7842  0.2319
 5561SOL    HW117877   0.448   7.185   3.804  2.6213 -0.5275  1.6329
 5561SOL    HW217878   0.533   7.294   3.743 -0.0500  0.7643  0.0850
 5562SOL     OW17879   0.212   2.366   4.479  0.4417  0.5677 -0.3532
 5562SOL    HW117880   0.201   2.359   4.385 -2.2310  0.0058 -0.1012
 5562SOL    HW217881   0.274   2.297   4.502 -0.8013 -1.0181 -1.4897
 5563SOL     OW17882   3.662   1.275   7.817  0.1959 -0.7155  0.5545
 5563SOL    HW117883   3.707   1.219   7.880  1.3426 -0.0981  0.3134
 5563SOL    HW217884   3.669   1.229   7.733  4.2690  1.1843 -0.4499
 5564SOL     OW17885   5.291   2.903   6.226 -0.3566  0.1542  0.0534
 5564SOL    HW117886   5.373   2.929   6.268  0.1452 -1.1161 -0.0968
 5564SOL    HW217887   5.247   2.849   6.291 -1.1627  0.9350  0.1834
 5565SOL     OW17888   2.991   7.756   0.095  0.0484 -0.5860  0.4335
 5565SOL    HW117889   2.993   7.672   0.050 -0.3453 -0.0117 -0.6968
 5565SOL    HW217890   2.915   7.750   0.154  0.5592 -1.3395  1.0219
 5566SOL     OW17891   6.353   2.523   0.609  0.4596  0.1138  0.1430
 5566SOL    HW117892   6.345   2.537   0.514  1.1795  0.0400  0.0615
 5566SOL    HW217893   6.446   2.502   0.622  0.2285 -0.5655  0.7730
 5567SOL     OW17894   3.940   5.588   2.844 -0.5139  0.2617  0.3686
 5567SOL    HW117895   3.854   5.629   2.839 -1.0196 -0.8568 -0.6297
 5567SOL    HW217896   3.926   5.509   2.897 -0.0283  0.2324  0.4617
 5568SOL     OW17897   5.427   6.584   6.307 -0.2137 -0.3472 -0.5062
 5568SOL    HW117898   5.367   6.628   6.367 -2.6294 -1.6925 -1.7716
 5568SOL    HW217899   5.514   6.612   6.335 -1.4047  1.8823  1.3079
 5569SOL     OW17900   3.523   4.806   8.266 -0.0498 -0.3339 -0.4870
 5569SOL    HW117901   3.495   4.890   8.303  0.6512  0.4305 -1.6079
 5569SOL    HW217902   3.575   4.765   8.336  1.2967  1.0939 -0.5809
 5570SOL     OW17903   7.983   8.357   5.040  0.0103 -0.3654 -0.0239
 5570SOL    HW117904   7.896   8.318   5.028 -0.5895  1.0603 -0.5448
 5570SOL    HW217905   8.028   8.339   4.957 -0.2748  0.0751 -0.2752
 5571SOL     OW17906   0.233   5.858   0.562 -0.3031  0.3633  0.5265
 5571SOL    HW117907   0.294   5.927   0.534  2.3344 -0.8776  2.7424
 5571SOL    HW217908   0.198   5.822   0.480  1.4883  1.5507 -0.8308
 5572SOL     OW17909   5.746   2.374   1.476 -0.2218 -0.1286  0.3142
 5572SOL    HW117910   5.775   2.318   1.547 -1.2277 -0.0078  0.8377
 5572SOL    HW217911   5.766   2.325   1.396  0.8119 -0.3085  0.6639
 5573SOL     OW17912   8.097   6.758   6.236  0.1090  0.0927 -0.1746
 5573SOL    HW117913   8.059   6.820   6.298  0.6963  0.4663 -0.1910
 5573SOL    HW217914   8.042   6.767   6.157 -0.2239  0.0965  0.0549
 5574SOL     OW17915   1.931   1.020   4.749 -0.2728 -0.6924  0.1828
 5574SOL    HW117916   1.997   1.053   4.809 -0.7915  0.4351  0.1538
 5574SOL    HW217917   1.861   1.085   4.752 -0.3802 -0.6855 -1.5334
 5575SOL     OW17918   7.365   6.849   3.858  0.2363  0.1344 -0.0219
 5575SOL    HW117919   7.433   6.913   3.876  0.7361 -0.4644  0.2549
 5575SOL    HW217920   7.398   6.767   3.895 -1.6335  0.2825  2.1828
 5576SOL     OW17921   1.317   2.920   6.649  0.5229  0.1246  0.2306
 5576SOL    HW117922   1.312   2.970   6.568 -1.2518 -0.0282  0.2063
 5576SOL    HW217923   1.387   2.857   6.634 -1.4548 -1.6523 -2.2269
 5577SOL     OW17924   6.764   8.404   1.692  0.2333 -0.1380  0.7615
 5577SOL    HW117925   6.745   8.496   1.711  3.0924  0.8732 -0.6959
 5577SOL    HW217926   6.859   8.397   1.699  0.4394 -2.1706 -2.2907
 5578SOL     OW17927   1.935   8.295   5.048  0.3980  0.1399 -0.5867
 5578SOL    HW117928   1.864   8.308   4.986  0.1491 -0.8681 -0.5315
 5578SOL    HW217929   1.994   8.233   5.004  0.8368  0.3583 -0.3135
 5579SOL     OW17930   6.660   6.196   1.306 -0.3253 -0.2128 -0.4222
 5579SOL    HW117931   6.615   6.214   1.224 -1.6630 -0.5578  0.2234
 5579SOL    HW217932   6.612   6.123   1.345  1.9461 -1.9213 -0.6057
 5580SOL     OW17933   6.827   0.580   2.464 -0.1239 -0.4841 -0.3467
 5580SOL    HW117934   6.852   0.624   2.546 -2.8889 -0.1885  0.4391
 5580SOL    HW217935   6.809   0.652   2.404 -2.6784 -0.4932  0.3133
 5581SOL     OW17936   6.587   2.044   6.429  0.2210  0.2973 -0.1688
 5581SOL    HW117937   6.563   2.124   6.383  0.8885 -0.3486 -1.7082
 5581SOL    HW217938   6.673   2.020   6.394  1.4414  0.4992  2.4427
 5582SOL     OW17939   4.535   7.576   1.382 -1.0032  0.3131  0.0040
 5582SOL    HW117940   4.468   7.578   1.312 -1.8288  2.4178  0.7866
 5582SOL    HW217941   4.607   7.628   1.347 -0.6777 -0.1164  0.0340
 5583SOL     OW17942   6.251   1.132   3.219  0.2333  0.1499 -0.6799
 5583SOL    HW117943   6.189   1.083   3.274 -0.1583  0.4904 -0.8112
 5583SOL    HW217944   6.335   1.089   3.234 -0.2803 -1.2949 -1.6225
 5584SOL     OW17945   4.024   1.742   8.325  0.3129  0.1280  0.2511
 5584SOL    HW117946   4.016   1.710   8.236 -0.0530 -1.2546  0.7596
 5584SOL    HW217947   4.015   1.837   8.317 -2.1921 -0.1220 -0.9289
 5585SOL     OW17948   6.260   1.236   1.377  0.2027 -0.1181  0.3010
 5585SOL    HW117949   6.204   1.207   1.450  0.0726 -1.5693 -0.3291
 5585SOL    HW217950   6.199   1.279   1.317  0.2918  0.9882  0.9837
 5586SOL     OW17951   1.593   3.366   0.894 -0.0286  0.5035 -0.1080
 5586SOL    HW117952   1.589   3.290   0.952 -1.3162 -0.6930 -1.6480
 5586SOL    HW217953   1.679   3.360   0.852 -0.9095 -1.4090 -1.7888
 5587SOL     OW17954   6.277   3.482   5.828 -1.0345  0.2381 -0.0553
 5587SOL    HW117955   6.221   3.470   5.905  1.6234 -0.1084  1.9559
 5587SOL    HW217956   6.321   3.566   5.843  1.0275 -0.7852 -0.1425
 5588SOL     OW17957   0.368   0.230   3.226  0.0066  0.5379  0.3025
 5588SOL    HW117958   0.374   0.163   3.294 -1.9130  1.2880  1.3029
 5588SOL    HW217959   0.404   0.309   3.267  0.0923  0.6773 -0.0375
 5589SOL     OW17960   2.857   0.847   5.456  0.0108 -0.5219  0.6703
 5589SOL    HW117961   2.920   0.918   5.443 -1.0555  0.3209 -0.0523
 5589SOL    HW217962   2.899   0.771   5.415  0.5857  0.0093  0.2413
 5590SOL     OW17963   8.029   7.737   5.041 -0.1910 -0.0175  0.5483
 5590SOL    HW117964   7.973   7.803   5.081  0.8113  1.5608 -0.5446
 5590SOL    HW217965   7.992   7.724   4.953  0.0070 -0.4408  0.5218
 5591SOL     OW17966   6.596   7.910   6.062 -0.0258 -0.2374  0.0004
 5591SOL    HW117967   6.684   7.933   6.091  0.4284  0.3084 -1.6763
 5591SOL    HW217968   6.608   7.832   6.009 -0.7560 -0.9238  0.8205
 5592SOL     OW17969   6.439   5.637   8.365 -0.1557  0.1838  0.1794
 5592SOL    HW117970   6.354   5.672   8.339  0.0972  0.9509  0.3700
 5592SOL    HW217971   6.452   5.667   8.454 -0.7050 -1.8666  1.0026
 5593SOL     OW17972   1.152   3.715   0.313 -0.3447 -0.1397  0.5798
 5593SOL    HW117973   1.063   3.680   0.315  0.7561 -3.2612  0.6713
 5593SOL    HW217974   1.188   3.694   0.399  0.9797 -0.4136 -0.0182
 5594SOL     OW17975   5.748   4.429   0.369 -0.4311  0.5357  0.5232
 5594SOL    HW117976   5.693   4.371   0.422 -1.4045  2.0548  1.2513
 5594SOL    HW217977   5.800   4.478   0.432  2.0312 -1.0271 -0.1685
 5595SOL     OW17978   7.749   2.220   2.354 -0.6459  0.2958  0.1521
 5595SOL    HW117979   7.815   2.288   2.340 -1.2028  0.5881 -1.1660
 5595SOL    HW217980   7.762   2.159   2.282 -1.1884 -0.1592  0.4358
 5596SOL     OW17981   7.480   4.303   4.037 -0.0820 -0.2824 -0.1322
 5596SOL    HW117982   7.399   4.335   3.996 -1.4155 -0.2105  2.3402
 5596SOL    HW217983   7.492   4.216   4.000 -1.5164 -0.4355 -0.3106
 5597SOL     OW17984   8.366   6.650   5.037  0.4274 -0.2293 -0.0540
 5597SOL    HW117985   8.437   6.632   4.976  0.7113 -0.5586  0.3707
 5597SOL    HW217986   8.302   6.580   5.020  0.8390 -0.7579  0.5306
 5598SOL     OW17987   4.936   2.375   5.086 -0.2514  0.1461  0.2451
 5598SOL    HW117988   4.929   2.399   4.994  1.7643  0.5756  0.1565
 5598SOL    HW217989   5.028   2.352   5.098 -0.5667 -0.3433  2.0602
 5599SOL     OW17990   0.458   3.653   3.826  0.0184 -0.0736  0.1231
 5599SOL    HW117991   0.484   3.631   3.737 -0.4621  0.0733 -0.0599
 5599SOL    HW217992   0.535   3.634   3.880  0.5084  0.3802 -0.4002
 5600SOL     OW17993   3.313   7.392   2.871 -0.1136 -0.1663 -0.3123
 5600SOL    HW117994   3.336   7.374   2.962 -1.0165  0.2213  0.0049
 5600SOL    HW217995   3.217   7.395   2.871 -0.0920  1.5205 -0.9408
 5601SOL     OW17996   0.658   0.500   5.434 -0.1740  0.1037 -0.6678
 5601SOL    HW117997   0.651   0.445   5.512 -0.3617 -0.1053 -0.8303
 5601SOL    HW217998   0.599   0.573   5.451  2.4850  2.0172  0.9754
 5602SOL     OW17999   4.644   1.389   7.396  0.1377 -0.0271 -0.3786
 5602SOL    HW118000   4.557   1.352   7.409  0.1130  0.2162  0.1768
 5602SOL    HW218001   4.629   1.477   7.363  0.1982 -1.0833 -3.5566
 5603SOL     OW18002   2.269   7.142   0.747 -0.2647  0.0216 -0.1359
 5603SOL    HW118003   2.217   7.180   0.676 -1.1239  1.1488  1.0526
 5603SOL    HW218004   2.332   7.210   0.770  1.6373 -1.2305 -1.3799
 5604SOL     OW18005   0.945   6.532   2.693 -0.1733 -0.0499  0.2429
 5604SOL    HW118006   0.892   6.590   2.638 -1.3096  0.0068  1.3320
 5604SOL    HW218007   0.883   6.466   2.724  0.5959 -0.4898  0.8630
 5605SOL     OW18008   6.929   7.186   6.138 -0.4352 -0.2959  0.2421
 5605SOL    HW118009   6.837   7.209   6.124 -0.5311 -1.1133 -0.5502
 5605SOL    HW218010   6.947   7.119   6.072  0.6778 -0.2785  0.5173
 5606SOL     OW18011   4.167   0.288   0.570 -0.4291 -0.6186  0.4404
 5606SOL    HW118012   4.220   0.328   0.639  0.5590 -1.1243 -0.0060
 5606SOL    HW218013   4.078   0.289   0.605 -0.3720  1.4303  0.6731
 5607SOL     OW18014   3.956   4.803   5.869  0.3192  0.1111 -0.0327
 5607SOL    HW118015   3.908   4.828   5.790  1.5648 -0.8708 -1.1544
 5607SOL    HW218016   3.948   4.878   5.927 -1.3595  0.5182 -0.7349
 5608SOL     OW18017   6.570   3.626   2.125  0.3553  0.2727  0.1187
 5608SOL    HW118018   6.601   3.535   2.123 -0.4809 -0.0090 -0.3258
 5608SOL    HW218019   6.494   3.627   2.067 -0.6386  0.8928  1.3819
 5609SOL     OW18020   1.599   4.382   7.215 -0.2239 -0.4740 -0.3433
 5609SOL    HW118021   1.624   4.308   7.271  1.5712  1.2650  1.2959
 5609SOL    HW218022   1.679   4.403   7.166 -0.3998  0.9821 -0.0473
 5610SOL     OW18023   2.169   1.753   0.007  0.0124  0.0813 -0.5941
 5610SOL    HW118024   2.238   1.817  -0.007 -0.1567  0.4654  0.2891
 5610SOL    HW218025   2.118   1.754  -0.074  0.2517  0.7567 -0.7392
 5611SOL     OW18026   8.275   2.475   3.375  0.2567  0.1065  0.2601
 5611SOL    HW118027   8.205   2.506   3.318 -0.1393 -4.0804 -1.9135
 5611SOL    HW218028   8.236   2.474   3.462 -0.9537  1.5947 -0.2147
 5612SOL     OW18029   6.931   2.699   1.996 -0.7630  0.0887  0.2498
 5612SOL    HW118030   6.934   2.795   1.992 -1.6608  0.0696 -1.4360
 5612SOL    HW218031   6.915   2.680   2.088  1.2542  1.4752  0.9722
 5613SOL     OW18032   7.251   5.534   0.599 -0.1739 -0.1271 -0.6625
 5613SOL    HW118033   7.231   5.456   0.650  0.2372  0.1675 -0.0343
 5613SOL    HW218034   7.300   5.590   0.660  1.0879 -0.1323 -1.6358
 5614SOL     OW18035   6.767   3.972   4.109  0.1801  0.4478 -0.0177
 5614SOL    HW118036   6.726   3.887   4.093  0.8564  0.1062  0.0665
 5614SOL    HW218037   6.781   4.008   4.021 -2.0583  1.4469 -0.0605
 5615SOL     OW18038   4.178   2.177   6.231 -0.3914  0.4961 -0.0099
 5615SOL    HW118039   4.165   2.261   6.275  2.4088  1.2518 -0.4467
 5615SOL    HW218040   4.152   2.193   6.140  3.6837  2.2225 -1.0823
 5616SOL     OW18041   3.156   1.311   3.874 -0.5756  0.0162  0.2166
 5616SOL    HW118042   3.239   1.292   3.831 -0.1848  0.0631  0.9486
 5616SOL    HW218043   3.120   1.385   3.826  0.1119  0.4093  0.3106
 5617SOL     OW18044   1.094   7.936   4.380 -0.2668 -0.8923  0.5234
 5617SOL    HW118045   1.059   7.892   4.302 -2.7673 -0.8298  1.5041
 5617SOL    HW218046   1.026   7.999   4.404  0.9265 -0.1547  2.1367
 5618SOL     OW18047   6.618   3.272   4.980 -0.2916 -0.4544 -0.4713
 5618SOL    HW118048   6.569   3.325   4.917 -0.9714 -2.5181 -1.7809
 5618SOL    HW218049   6.696   3.244   4.932 -0.1449 -0.9710  0.0550
 5619SOL     OW18050   1.285   1.565   6.574 -0.6097 -0.6153 -0.2376
 5619SOL    HW118051   1.330   1.480   6.572 -0.2640 -0.4449  0.1828
 5619SOL    HW218052   1.336   1.620   6.514  0.5667 -0.0258  1.2542
 5620SOL     OW18053   6.787   6.733   4.596  0.1212  0.3786  0.7408
 5620SOL    HW118054   6.856   6.800   4.602 -0.7510  1.2439  1.4667
 5620SOL    HW218055   6.761   6.717   4.687 -0.6732  0.1056  0.4736
 5621SOL     OW18056   2.430   1.716   4.134 -0.0171  0.2000 -0.1899
 5621SOL    HW118057   2.353   1.735   4.188 -0.0284 -0.4475  0.0367
 5621SOL    HW218058   2.496   1.778   4.163  0.2201 -0.6236  1.1072
 5622SOL     OW18059   8.060   5.730   0.601 -0.0738 -0.2243 -0.0626
 5622SOL    HW118060   8.102   5.740   0.516 -0.1430 -0.3587 -0.1123
 5622SOL    HW218061   8.133   5.710   0.661 -0.0177 -0.0661 -0.0775
 5623SOL     OW18062   6.095   0.084   5.804  0.1950 -1.1721 -0.1098
 5623SOL    HW118063   6.108  -0.011   5.798  0.3897 -1.4058  2.6457
 5623SOL    HW218064   6.068   0.098   5.894  1.0773  1.5261 -0.1944
 5624SOL     OW18065   0.501   8.168   3.826  0.2575  0.5376 -0.5261
 5624SOL    HW118066   0.538   8.200   3.908 -0.7935  0.4699 -0.0029
 5624SOL    HW218067   0.441   8.237   3.799 -0.1709  0.1108 -0.6856
 5625SOL     OW18068   5.290   1.763   2.257 -0.5111  0.8744  0.3055
 5625SOL    HW118069   5.337   1.844   2.276  1.5272 -0.1505 -0.1087
 5625SOL    HW218070   5.321   1.737   2.171  0.0693 -1.1347  1.0748
 5626SOL     OW18071   2.314   1.980   6.204 -0.5656 -0.1147  0.1864
 5626SOL    HW118072   2.364   2.010   6.280  1.2431 -0.7398 -0.6899
 5626SOL    HW218073   2.223   1.987   6.231 -0.0470  1.5004  1.7169
 5627SOL     OW18074   0.292   5.388   4.281 -0.3787 -0.0794 -0.0401
 5627SOL    HW118075   0.322   5.479   4.279 -0.3903 -0.0942 -1.1723
 5627SOL    HW218076   0.326   5.349   4.201 -1.3446 -0.7645 -0.1330
 5628SOL     OW18077   1.986   7.472   1.792  0.0832  0.5141 -0.2640
 5628SOL    HW118078   2.065   7.507   1.833 -0.3644  0.1911  0.9384
 5628SOL    HW218079   1.990   7.378   1.809  0.6263  0.1042 -2.3303
 5629SOL     OW18080   7.065   5.229   4.788 -0.2363 -0.0055 -0.4644
 5629SOL    HW118081   7.129   5.219   4.717  0.9787  3.3053 -0.0171
 5629SOL    HW218082   6.983   5.194   4.753  0.6408  0.3397 -3.0037
 5630SOL     OW18083   7.943   1.769   6.872 -0.0822 -0.5075 -0.2202
 5630SOL    HW118084   8.031   1.802   6.856  0.4812 -0.6836  2.1765
 5630SOL    HW218085   7.921   1.799   6.960 -1.9241 -1.5276 -0.2710
 5631SOL     OW18086   7.081   6.759   8.192  0.0123  0.0741 -0.1087
 5631SOL    HW118087   7.128   6.707   8.257  3.2721  0.3300 -2.0604
 5631SOL    HW218088   7.045   6.694   8.132  1.1842 -0.0599 -0.6869
 5632SOL     OW18089   6.710   5.717   7.327  0.4292 -0.5191  0.0523
 5632SOL    HW118090   6.791   5.735   7.375  1.2495  0.2892 -1.5419
 5632SOL    HW218091   6.716   5.625   7.302 -0.7545 -1.4197  2.7586
 5633SOL     OW18092   6.484   1.417   4.194  0.2024 -0.6413  0.7938
 5633SOL    HW118093   6.491   1.476   4.120 -0.0224 -2.0275 -0.3800
 5633SOL    HW218094   6.530   1.461   4.265  1.4396  0.2079 -0.4933
 5634SOL     OW18095   8.462   2.149   7.283 -0.3947 -0.1662  0.2062
 5634SOL    HW118096   8.523   2.085   7.245  0.0458  0.6894 -0.5830
 5634SOL    HW218097   8.514   2.230   7.288 -1.6390  0.7511 -1.0734
 5635SOL     OW18098   8.141   2.134   5.920 -0.7572 -0.0101  0.0983
 5635SOL    HW118099   8.212   2.186   5.882  0.6249 -1.8543  0.0763
 5635SOL    HW218100   8.074   2.199   5.943  0.5374  1.6785 -0.7110
 5636SOL     OW18101   0.805   6.229   6.929 -0.3563 -0.3590 -0.0274
 5636SOL    HW118102   0.852   6.287   6.989 -1.3527  0.2026  0.2196
 5636SOL    HW218103   0.858   6.149   6.927  0.1891 -0.0357  0.8669
 5637SOL     OW18104   7.409   0.617   1.941 -0.7892 -0.5179 -0.1694
 5637SOL    HW118105   7.318   0.601   1.967 -1.1157 -0.0927 -1.0063
 5637SOL    HW218106   7.458   0.616   2.023 -1.2750 -2.4397  0.1283
 5638SOL     OW18107   3.325   8.544   0.368 -0.1233 -0.5840  0.3948
 5638SOL    HW118108   3.301   8.568   0.457  0.9908 -2.9335  1.4157
 5638SOL    HW218109   3.409   8.586   0.353 -0.5730  0.2763  0.2000
 5639SOL     OW18110   0.747   7.539   6.279 -0.5958 -0.2792 -0.0781
 5639SOL    HW118111   0.799   7.591   6.218 -1.9145  1.0795 -0.1155
 5639SOL    HW218112   0.730   7.597   6.353 -1.1017 -1.0666  0.4486
 5640SOL     OW18113   0.501   2.355   5.429 -0.0018  0.1206 -0.2413
 5640SOL    HW118114   0.570   2.359   5.363 -0.1314  1.6513 -0.3263
 5640SOL    HW218115   0.457   2.440   5.423 -1.6777 -0.6821  0.0513
 5641SOL     OW18116   5.559   2.365   7.976 -0.6350 -0.2098 -0.2313
 5641SOL    HW118117   5.650   2.395   7.970 -0.8685  0.6251  0.1777
 5641SOL    HW218118   5.508   2.440   7.945 -1.1052 -1.5911 -3.2252
 5642SOL     OW18119   0.281   1.218   2.757 -0.6205  0.0778 -0.4569
 5642SOL    HW118120   0.252   1.137   2.798 -2.7135  0.2355 -1.4691
 5642SOL    HW218121   0.254   1.209   2.665  0.3505  1.3568 -0.8978
 5643SOL     OW18122   5.806   5.474   8.483 -0.0377  0.2177 -0.0429
 5643SOL    HW118123   5.844   5.540   8.426 -0.9793 -0.2130 -1.2090
 5643SOL    HW218124   5.712   5.495   8.485 -0.3873 -1.1794 -0.6027
 5644SOL     OW18125   0.515   4.119   4.868 -0.0947  0.3253  0.0403
 5644SOL    HW118126   0.597   4.167   4.874  0.5847 -0.6513 -1.1579
 5644SOL    HW218127   0.474   4.151   4.788 -0.9265  0.8523  0.6641
 5645SOL     OW18128   0.732   7.235   1.894 -0.4398 -0.0936  0.1301
 5645SOL    HW118129   0.657   7.176   1.888  0.4329 -1.3755  1.3299
 5645SOL    HW218130   0.752   7.240   1.988  1.1857 -0.0528 -0.1958
 5646SOL     OW18131   2.673   1.771   4.567 -0.6162  0.5081 -0.7725
 5646SOL    HW118132   2.699   1.862   4.557 -1.2202  0.6029 -1.5571
 5646SOL    HW218133   2.579   1.770   4.550 -0.5827 -0.2922 -0.9940
 5647SOL     OW18134   6.831   7.459   7.371 -0.2421  0.1514  0.6868
 5647SOL    HW118135   6.743   7.425   7.355 -0.4936  0.8936  0.4606
 5647SOL    HW218136   6.868   7.400   7.437 -1.2421  0.3686  1.4568
 5648SOL     OW18137   6.810   6.996   4.827  0.3133  0.3399  0.3124
 5648SOL    HW118138   6.890   6.945   4.842 -0.0035 -0.4065 -0.4997
 5648SOL    HW218139   6.741   6.947   4.872 -0.0169 -0.0342 -0.5880
 5649SOL     OW18140   2.635   7.609   2.183  0.4537  0.2082  0.2552
 5649SOL    HW118141   2.676   7.690   2.152 -0.9249  0.4129 -1.1317
 5649SOL    HW218142   2.681   7.590   2.265  2.8486  0.7672 -0.8594
 5650SOL     OW18143   6.334   7.396   3.922  0.3085  0.2707 -0.3442
 5650SOL    HW118144   6.383   7.394   4.004  0.0364 -1.1576 -0.2007
 5650SOL    HW218145   6.250   7.356   3.943 -0.0326  0.5316 -1.1617
 5651SOL     OW18146   5.773   5.605   2.179 -0.8991 -0.8126 -0.1274
 5651SOL    HW118147   5.742   5.609   2.269 -0.4946 -0.6179  0.0077
 5651SOL    HW218148   5.761   5.513   2.153 -2.1898 -0.6168 -0.3098
 5652SOL     OW18149   8.471   1.517   0.671 -0.0287  0.4738 -0.4694
 5652SOL    HW118150   8.460   1.477   0.584 -1.0292 -0.3618  0.0202
 5652SOL    HW218151   8.472   1.443   0.731 -1.9857  1.1492  0.4737
 5653SOL     OW18152   6.250   3.657   7.556 -0.7500  0.1669  0.1656
 5653SOL    HW118153   6.250   3.745   7.595 -0.7122  0.6889 -0.9618
 5653SOL    HW218154   6.160   3.626   7.567 -0.6893  0.2119  0.8461
 5654SOL     OW18155   0.007   7.740   2.785  0.1755  0.3073 -0.5236
 5654SOL    HW118156  -0.086   7.759   2.775  0.1745  0.4498 -0.2555
 5654SOL    HW218157   0.021   7.739   2.880 -0.2818 -3.1852 -0.3426
 5655SOL     OW18158   5.749   1.454   1.396  0.3115 -0.4192 -0.1013
 5655SOL    HW118159   5.706   1.402   1.465 -1.0599  0.8086  0.0154
 5655SOL    HW218160   5.696   1.533   1.389  1.8052  0.5628 -0.9309
 5656SOL     OW18161   1.650   8.121   5.479 -0.0054 -0.2930 -0.0441
 5656SOL    HW118162   1.730   8.126   5.530 -0.9665  0.3954  1.4671
 5656SOL    HW218163   1.663   8.183   5.407  0.5287  0.3687  0.6075
 5657SOL     OW18164   3.939   4.687   7.263 -0.6930 -0.0888 -0.3936
 5657SOL    HW118165   3.955   4.628   7.336  0.0042 -0.0974 -0.5386
 5657SOL    HW218166   4.027   4.716   7.237 -1.0260  1.1258 -0.2215
 5658SOL     OW18167   6.324   1.764   5.314  0.6942 -0.6895 -0.0760
 5658SOL    HW118168   6.260   1.830   5.340  0.6782  0.0028 -1.6997
 5658SOL    HW218169   6.401   1.815   5.286  1.5040 -1.4595  0.6827
 5659SOL     OW18170   0.509   6.223   6.250 -0.2772  0.2967 -0.2196
 5659SOL    HW118171   0.568   6.284   6.293 -1.0359 -0.0167  1.3450
 5659SOL    HW218172   0.508   6.146   6.306 -0.0337 -0.8347 -1.6871
 5660SOL     OW18173   4.645   1.986   3.328  0.0906 -0.0308  0.0097
 5660SOL    HW118174   4.602   1.920   3.273 -0.0731  0.7976 -0.8783
 5660SOL    HW218175   4.712   2.024   3.271  0.9150 -0.1784  0.8614
 5661SOL     OW18176   2.328   6.602   6.729 -0.1476 -0.7876  0.2835
 5661SOL    HW118177   2.379   6.542   6.675  1.0260  1.1254 -0.8288
 5661SOL    HW218178   2.253   6.627   6.675 -1.4415 -2.2875  1.2882
 5662SOL     OW18179   0.773   5.999   6.170  0.4380  0.0675 -0.2103
 5662SOL    HW118180   0.768   6.006   6.265  1.3988  1.5096 -0.2471
 5662SOL    HW218181   0.737   5.912   6.151 -2.4113  0.8241  1.2137
 5663SOL     OW18182   6.736   1.933   3.072  0.0304 -0.3037  0.4180
 5663SOL    HW118183   6.677   1.879   3.126  0.9141 -0.6956  1.0171
 5663SOL    HW218184   6.691   2.017   3.065  0.4264  0.2042  2.8854
 5664SOL     OW18185   5.233   4.906   5.468 -0.6099  0.4385 -0.5467
 5664SOL    HW118186   5.300   4.854   5.510 -1.6805 -1.4774 -1.0827
 5664SOL    HW218187   5.279   4.983   5.435  0.7835  0.5065  1.4030
 5665SOL     OW18188   0.136   4.065   0.838  0.1197  0.1944  0.3127
 5665SOL    HW118189   0.149   4.039   0.929 -2.1455 -0.7567  0.4338
 5665SOL    HW218190   0.043   4.085   0.832 -0.2116 -1.6066 -2.1881
 5666SOL     OW18191   3.306   5.542   2.085 -0.0406  0.4258  0.0337
 5666SOL    HW118192   3.308   5.466   2.026 -0.9162  0.9201 -0.6567
 5666SOL    HW218193   3.371   5.602   2.049 -0.0063  0.3894  0.0350
 5667SOL     OW18194   3.787   7.148   4.843 -0.2476  0.0337  0.0351
 5667SOL    HW118195   3.818   7.222   4.792 -0.2734 -0.1595 -0.2642
 5667SOL    HW218196   3.701   7.175   4.875  0.3577  0.7073  1.1561
 5668SOL     OW18197   6.199   6.430   3.319  0.3378  0.6746 -0.2435
 5668SOL    HW118198   6.257   6.474   3.381  0.7354 -1.7324  1.2001
 5668SOL    HW218199   6.238   6.447   3.233  0.8662  2.4401  0.2969
 5669SOL     OW18200   5.580   8.351   2.653 -0.5718 -1.0301 -0.4818
 5669SOL    HW118201   5.595   8.329   2.562  1.9893  1.4862 -0.7890
 5669SOL    HW218202   5.503   8.409   2.652 -0.4927 -0.9358 -1.0262
 5670SOL     OW18203   2.584   3.172   4.766  0.5028  0.1575  0.0121
 5670SOL    HW118204   2.673   3.206   4.777  1.2729 -1.4314 -0.8765
 5670SOL    HW218205   2.572   3.166   4.671 -0.7875  0.8774  0.1033
 5671SOL     OW18206   1.697   5.634   7.087  1.0166 -0.2595  0.4379
 5671SOL    HW118207   1.781   5.632   7.132  0.7225 -2.2289  0.9742
 5671SOL    HW218208   1.699   5.558   7.029 -0.3773 -0.3074  0.4252
 5672SOL     OW18209   3.246   7.212   5.360  0.3175 -0.9992 -0.3745
 5672SOL    HW118210   3.312   7.191   5.294  1.9301  1.4807  0.3075
 5672SOL    HW218211   3.292   7.200   5.444 -0.3596 -0.0721  0.1481
 5673SOL     OW18212   3.608   2.692   6.592 -0.3823 -0.0254  0.3124
 5673SOL    HW118213   3.546   2.661   6.526 -0.7683  1.1027  0.1258
 5673SOL    HW218214   3.560   2.688   6.675  0.1912 -1.7056  0.6020
 5674SOL     OW18215   2.592   0.877   7.542 -0.5370 -0.3045 -0.6619
 5674SOL    HW118216   2.667   0.891   7.600  0.6517 -0.7552 -2.0522
 5674SOL    HW218217   2.537   0.954   7.556 -0.3310 -0.4478  1.1168
 5675SOL     OW18218   0.936   5.328   0.452 -0.2534 -0.0855 -0.2558
 5675SOL    HW118219   1.011   5.386   0.462 -0.4193  0.3559 -1.4969
 5675SOL    HW218220   0.974   5.242   0.431  0.0238 -0.6468  2.1461
 5676SOL     OW18221   7.693   2.311   6.345 -0.0021 -0.5219 -0.0653
 5676SOL    HW118222   7.719   2.401   6.366  0.2135 -0.3371 -1.0753
 5676SOL    HW218223   7.767   2.275   6.296  0.4834 -1.7131  1.4494
 5677SOL     OW18224   2.638   2.198   1.911 -0.2004  0.1521 -0.4869
 5677SOL    HW118225   2.624   2.275   1.856  2.5262 -1.4102 -3.7836
 5677SOL    HW218226   2.570   2.136   1.883 -1.3374  0.6924  0.9519
 5678SOL     OW18227   6.374   0.316   0.713 -0.0687  0.4247  0.5866
 5678SOL    HW118228   6.301   0.378   0.719 -0.0602  0.3260  1.9625
 5678SOL    HW218229   6.449   0.362   0.750  0.0227 -0.2597  1.2934
 5679SOL     OW18230   0.592   5.796   7.434 -0.1619  0.0398 -0.0014
 5679SOL    HW118231   0.587   5.801   7.338 -0.9905 -1.0846 -0.0345
 5679SOL    HW218232   0.561   5.708   7.455 -3.5367  1.4232  1.5511
 5680SOL     OW18233   6.633   3.421   5.952 -0.0467 -0.1956 -0.8069
 5680SOL    HW118234   6.566   3.474   5.909 -0.7191 -1.3883 -1.2791
 5680SOL    HW218235   6.708   3.424   5.892  1.1498  2.7824  0.6387
 5681SOL     OW18236   3.482   4.688   0.352  0.4840  0.5886  0.4227
 5681SOL    HW118237   3.482   4.725   0.264 -2.1494  0.0296  0.1017
 5681SOL    HW218238   3.532   4.606   0.344  0.1931  0.4976 -0.5866
 5682SOL     OW18239   2.366   5.460   5.989  0.1170  0.1149 -0.5343
 5682SOL    HW118240   2.342   5.469   6.081 -0.4277  1.6641 -0.8030
 5682SOL    HW218241   2.283   5.444   5.944  0.5942 -2.7061 -0.5704
 5683SOL     OW18242   5.246   0.555   1.084 -0.5840 -0.1183  0.0461
 5683SOL    HW118243   5.197   0.476   1.108 -0.1797 -0.3769  0.0265
 5683SOL    HW218244   5.337   0.534   1.105 -0.4200  0.1858 -0.3505
 5684SOL     OW18245   1.950   5.929   8.242 -0.2301 -0.4993  1.0735
 5684SOL    HW118246   1.988   5.955   8.158 -1.0490  1.6624  1.2788
 5684SOL    HW218247   2.017   5.950   8.307  0.6859 -2.8395  0.9748
 5685SOL     OW18248   1.186   1.857   4.718  0.1915  0.1552  0.0830
 5685SOL    HW118249   1.157   1.934   4.768 -2.0795  1.0711 -2.3905
 5685SOL    HW218250   1.261   1.889   4.667  0.5747  0.1078  0.6126
 5686SOL     OW18251   6.789   1.085   4.658 -0.3091 -0.2253  0.3237
 5686SOL    HW118252   6.783   1.014   4.594  1.6654 -1.4434  1.3868
 5686SOL    HW218253   6.712   1.072   4.714 -0.3323 -1.1151  0.1047
 5687SOL     OW18254   4.013   0.987   5.891 -0.3773 -0.5352 -0.2787
 5687SOL    HW118255   3.918   0.989   5.879 -0.4609 -1.4534  0.0931
 5687SOL    HW218256   4.027   1.021   5.980 -0.2017  1.2300 -0.9534
 5688SOL     OW18257   5.535   2.713   7.615  0.0749  0.0946 -0.0080
 5688SOL    HW118258   5.569   2.776   7.552  3.0125 -2.1036 -0.8455
 5688SOL    HW218259   5.448   2.692   7.583 -0.0526  1.9390 -1.0246
 5689SOL     OW18260   6.178   3.144   3.035  0.2054 -0.4695 -0.0489
 5689SOL    HW118261   6.146   3.202   3.104  1.0029 -2.0163  1.7043
 5689SOL    HW218262   6.273   3.152   3.039  0.3668 -2.2139  0.5831
 5690SOL     OW18263   6.878   2.243   6.320  0.2375  0.4163  0.2214
 5690SOL    HW118264   6.893   2.152   6.292 -0.7209 -0.2761  1.8157
 5690SOL    HW218265   6.820   2.279   6.253  0.4406 -0.2131 -0.3121
 5691SOL     OW18266   0.081   7.477   6.192  0.1560  0.0791 -0.2898
 5691SOL    HW118267   0.034   7.559   6.207 -0.0891 -0.1790  0.3501
 5691SOL    HW218268   0.126   7.460   6.274  0.9245  0.0250 -0.7099
 5692SOL     OW18269   7.923   0.102   3.987  0.8427 -0.4258 -0.1884
 5692SOL    HW118270   7.941   0.119   4.080  0.4964 -0.9613 -0.0152
 5692SOL    HW218271   8.004   0.125   3.942 -0.1125  3.5491 -0.2489
 5693SOL     OW18272   3.059   5.350   8.409 -0.2646  0.5671  1.0166
 5693SOL    HW118273   2.973   5.392   8.414 -0.0327  0.9797  1.7691
 5693SOL    HW218274   3.056   5.281   8.476 -1.0653 -1.4912 -0.9988
 5694SOL     OW18275   0.198   5.462   5.378 -0.0952  0.1124  0.6972
 5694SOL    HW118276   0.179   5.370   5.395  0.4690  0.0583  1.0602
 5694SOL    HW218277   0.251   5.490   5.453  3.2352 -0.3436 -1.3011
 5695SOL     OW18278   5.641   2.043   1.798 -0.1518  0.0108  0.0004
 5695SOL    HW118279   5.606   2.104   1.863  0.2757  1.6234 -1.2332
 5695SOL    HW218280   5.568   1.983   1.780 -0.3911 -0.2480  1.6601
 5696SOL     OW18281   3.275   5.934   1.234  0.1939 -0.0880 -0.1906
 5696SOL    HW118282   3.209   5.879   1.275  0.4072  0.4764  0.9614
 5696SOL    HW218283   3.352   5.878   1.226 -0.5478 -0.9193 -2.0531
 5697SOL     OW18284   6.644   6.535   2.296 -0.1922 -0.2196 -0.0292
 5697SOL    HW118285   6.642   6.601   2.227 -0.2150  0.4443  0.5981
 5697SOL    HW218286   6.643   6.585   2.377 -0.6608 -1.0035  0.4589
 5698SOL     OW18287   6.952   3.514   6.772 -0.2076 -0.6522  0.4195
 5698SOL    HW118288   6.991   3.429   6.750 -1.4689 -0.4908 -3.0697
 5698SOL    HW218289   6.873   3.493   6.821 -0.9785 -1.6242 -1.1698
 5699SOL     OW18290   3.182   1.970   1.380 -0.2560  0.0906 -0.3323
 5699SOL    HW118291   3.228   2.044   1.419  0.4659  0.8132 -2.3998
 5699SOL    HW218292   3.123   2.009   1.315  1.3988 -1.1437 -2.7306
 5700SOL     OW18293   4.423   5.250   5.109 -0.0484 -0.1973 -0.0953
 5700SOL    HW118294   4.391   5.310   5.176 -1.2435  0.2278 -1.0104
 5700SOL    HW218295   4.487   5.300   5.059  0.4492 -0.3427  0.3943
 5701SOL     OW18296   0.176   5.646   3.205 -0.3331 -0.5560 -0.7158
 5701SOL    HW118297   0.213   5.671   3.290 -0.6799 -2.6374  0.1216
 5701SOL    HW218298   0.221   5.701   3.141 -0.0113  1.0295  0.7925
 5702SOL     OW18299   6.593   4.742   7.394 -0.3066 -0.4373  0.0072
 5702SOL    HW118300   6.534   4.711   7.463 -1.1429  2.1389  0.5816
 5702SOL    HW218301   6.681   4.730   7.430 -0.5164 -2.6392 -0.1022
 5703SOL     OW18302   1.519   8.455   6.419  0.1033 -0.3622 -0.2887
 5703SOL    HW118303   1.592   8.512   6.396 -1.2013  1.9849  1.0381
 5703SOL    HW218304   1.457   8.464   6.347  0.0019 -0.2654 -0.1910
 5704SOL     OW18305   4.827   3.819   5.228 -0.3663  0.5911 -0.5611
 5704SOL    HW118306   4.873   3.832   5.311 -1.8455  0.5260  0.2982
 5704SOL    HW218307   4.875   3.748   5.186  0.0552  0.2190  0.5056
 5705SOL     OW18308   7.971   5.996   3.925  0.0389 -0.1636 -0.0045
 5705SOL    HW118309   7.889   5.950   3.906 -0.5956  1.1160 -0.5285
 5705SOL    HW218310   8.018   5.938   3.984 -1.7039 -0.5099  1.1373
 5706SOL     OW18311   3.806   0.580   4.359 -0.0625  0.5843  0.2607
 5706SOL    HW118312   3.841   0.499   4.322 -1.6072  1.1380 -2.7171
 5706SOL    HW218313   3.767   0.554   4.442  0.0599 -1.6131 -0.3184
 5707SOL     OW18314   2.902   0.651   1.842 -0.5748  0.4830  0.5845
 5707SOL    HW118315   2.989   0.616   1.826 -1.1748 -0.9131  0.1558
 5707SOL    HW218316   2.916   0.741   1.871  0.9013  0.9518 -1.3828
 5708SOL     OW18317   6.092   4.466   6.113 -0.8127 -0.1297 -0.3008
 5708SOL    HW118318   6.174   4.417   6.118 -0.5071  0.4904  1.4162
 5708SOL    HW218319   6.040   4.433   6.186 -1.3179  0.7942 -0.2216
 5709SOL     OW18320   5.904   2.522   4.810 -0.0892  0.2882  0.6098
 5709SOL    HW118321   5.855   2.453   4.855 -0.7618 -0.5497 -1.2985
 5709SOL    HW218322   5.836   2.582   4.777  0.0602 -0.9659 -2.1919
 5710SOL     OW18323   0.382   2.482   8.231  0.8071  0.4266 -0.1364
 5710SOL    HW118324   0.449   2.426   8.192  1.3532  1.4886 -0.7587
 5710SOL    HW218325   0.392   2.469   8.326  0.3423 -1.1615 -0.2698
 5711SOL     OW18326   0.103   1.849   6.518 -0.2692  0.4254 -0.0039
 5711SOL    HW118327   0.109   1.854   6.422 -1.6419  0.3840 -0.1070
 5711SOL    HW218328   0.013   1.875   6.538  0.5493  2.2887  1.4439
 5712SOL     OW18329   2.027   6.620   7.652  0.3536  0.2519 -0.3094
 5712SOL    HW118330   2.042   6.622   7.557  0.3787  1.4383 -0.2959
 5712SOL    HW218331   2.086   6.553   7.684  0.9338  0.3963 -1.0457
 5713SOL     OW18332   1.890   0.880   2.190 -0.5261  0.6040 -0.3525
 5713SOL    HW118333   1.911   0.803   2.243 -0.2777 -0.4759 -1.9281
 5713SOL    HW218334   1.844   0.939   2.250  0.5557 -0.1299  1.2799
 5714SOL     OW18335   0.673   6.832   1.206  0.7357 -0.4334  0.4314
 5714SOL    HW118336   0.607   6.833   1.276  2.6942  0.5662  2.4049
 5714SOL    HW218337   0.643   6.897   1.143 -0.6295 -0.7097  0.7561
 5715SOL     OW18338   6.177   2.008   8.200 -0.0734  0.0524  0.2016
 5715SOL    HW118339   6.181   1.932   8.141  0.2976  0.2025  0.0298
 5715SOL    HW218340   6.185   2.083   8.141  0.5544  0.1985  0.4651
 5716SOL     OW18341   7.203   5.715   3.213 -1.0234  0.1987  0.0759
 5716SOL    HW118342   7.235   5.639   3.164 -0.9656 -0.2115  0.7401
 5716SOL    HW218343   7.193   5.784   3.146  2.1237  0.6666 -0.0781
 5717SOL     OW18344   0.055   5.196   2.301  0.2965 -0.4087 -0.6229
 5717SOL    HW118345   0.130   5.223   2.353  0.0109  2.6291 -1.6092
 5717SOL    HW218346   0.093   5.143   2.231  1.3862  0.1555 -0.4821
 5718SOL     OW18347   7.460   2.480   7.937 -0.1007 -0.4475 -0.0125
 5718SOL    HW118348   7.524   2.491   7.867 -0.5606  0.5116 -0.3025
 5718SOL    HW218349   7.477   2.392   7.972  1.7332 -0.0081  0.3053
 5719SOL     OW18350   8.602   5.719   6.347  0.3020  0.3738 -0.1535
 5719SOL    HW118351   8.664   5.663   6.394 -0.9768 -0.4004  0.6583
 5719SOL    HW218352   8.620   5.701   6.255  0.0476 -1.2658  0.0815
 5720SOL     OW18353   1.948   4.313   7.608 -0.0969  0.4045 -0.0583
 5720SOL    HW118354   1.937   4.219   7.627  0.4458  0.5605  1.1656
 5720SOL    HW218355   1.945   4.319   7.513 -0.5481 -0.8056 -0.1402
 5721SOL     OW18356   2.943   4.681   1.409 -0.0789 -0.3871 -0.3750
 5721SOL    HW118357   2.848   4.689   1.399 -0.2233 -1.7897 -0.3975
 5721SOL    HW218358   2.958   4.586   1.410  1.1683 -0.2051  1.0997
 5722SOL     OW18359   0.566   1.779   2.467  0.5456 -0.1837 -0.3388
 5722SOL    HW118360   0.634   1.744   2.525  1.9808  2.1348 -0.5231
 5722SOL    HW218361   0.613   1.810   2.390 -0.7763  0.9977 -0.7136
 5723SOL     OW18362   3.929   7.984   8.050 -0.3686 -0.1976  0.2263
 5723SOL    HW118363   3.861   7.978   7.983 -0.9156  1.5609  0.5564
 5723SOL    HW218364   3.900   8.056   8.107  2.2384  1.2916 -0.1997
 5724SOL     OW18365   2.053   2.640   3.970  0.4750 -0.6405 -0.0960
 5724SOL    HW118366   1.962   2.653   3.943 -0.2511 -3.0274  0.8964
 5724SOL    HW218367   2.056   2.548   3.997  2.7446 -0.1250  1.6311
 5725SOL     OW18368   8.103   4.782   6.170  0.4090 -0.1845  0.0771
 5725SOL    HW118369   8.080   4.838   6.244  1.4082 -0.1709  0.3901
 5725SOL    HW218370   8.081   4.693   6.199  1.3125 -0.2419  0.6168
 5726SOL     OW18371   6.703   0.332   1.683 -0.0628  0.7696  0.5595
 5726SOL    HW118372   6.728   0.387   1.610 -0.7749 -1.7294 -1.7426
 5726SOL    HW218373   6.609   0.317   1.671  0.2590 -1.6225  0.5047
 5727SOL     OW18374   4.484   1.049   3.818 -0.1800  0.4595 -0.3613
 5727SOL    HW118375   4.494   1.135   3.776  1.6788 -0.0848 -1.1773
 5727SOL    HW218376   4.519   1.061   3.906 -0.5300  0.6849 -0.2503
 5728SOL     OW18377   7.100   1.478   1.358  0.2842  0.2014  0.4049
 5728SOL    HW118378   7.063   1.502   1.443  0.9020 -1.5368  1.1946
 5728SOL    HW218379   7.159   1.406   1.376 -0.2135 -0.7935 -1.6242
 5729SOL     OW18380   4.530   4.529   2.941 -0.1857  0.9195 -0.7635
 5729SOL    HW118381   4.474   4.598   2.976  1.3015  1.2960  1.0273
 5729SOL    HW218382   4.559   4.480   3.019 -1.0417 -1.6395 -1.9539
 5730SOL     OW18383   4.577   2.278   7.614  0.4164 -0.6243 -0.1939
 5730SOL    HW118384   4.616   2.364   7.600 -0.0061 -0.7370 -2.4502
 5730SOL    HW218385   4.631   2.218   7.562 -0.8484 -1.2744 -0.8109
 5731SOL     OW18386   1.207   4.213   1.671  0.2874 -0.1211  0.5885
 5731SOL    HW118387   1.275   4.184   1.732  0.5386 -1.3070 -0.2168
 5731SOL    HW218388   1.253   4.227   1.588 -0.2106  0.5288  0.4113
 5732SOL     OW18389   3.884   0.561   2.887 -0.0025 -0.3716  0.4257
 5732SOL    HW118390   3.903   0.654   2.878 -1.0696 -0.3096 -1.6918
 5732SOL    HW218391   3.795   0.558   2.922 -0.1170 -0.5864  0.1195
 5733SOL     OW18392   3.387   4.407   6.381  0.0385  0.0456 -0.5004
 5733SOL    HW118393   3.307   4.442   6.419 -0.3865 -1.1408 -0.2614
 5733SOL    HW218394   3.454   4.421   6.448 -0.5800 -1.4816  0.4827
 5734SOL     OW18395   5.303   4.451   5.417  0.7608  0.3659 -0.0362
 5734SOL    HW118396   5.283   4.531   5.367  2.3073  1.4414  0.9688
 5734SOL    HW218397   5.380   4.474   5.468 -0.3463 -0.8858  2.3534
 5735SOL     OW18398   0.663   5.116   4.767  0.3525  0.5072  0.6766
 5735SOL    HW118399   0.581   5.122   4.815 -0.3732  0.9569 -0.5681
 5735SOL    HW218400   0.640   5.073   4.684  1.9895 -2.4270  1.5936
 5736SOL     OW18401   6.949   3.340   3.692 -0.0047  0.1499  0.3562
 5736SOL    HW118402   6.928   3.433   3.703  1.0915  0.3164  1.2681
 5736SOL    HW218403   6.877   3.294   3.736 -0.3133  0.5773  0.3065
 5737SOL     OW18404   7.192   5.095   0.387  0.3420  0.1164 -0.0944
 5737SOL    HW118405   7.171   5.062   0.474  0.5860 -2.5159 -0.9322
 5737SOL    HW218406   7.118   5.068   0.333  0.4336  1.2459 -0.8191
 5738SOL     OW18407   2.778   7.623   2.425 -0.6229 -0.0866 -0.1938
 5738SOL    HW118408   2.806   7.586   2.508  1.0749  0.1834 -0.6244
 5738SOL    HW218409   2.803   7.715   2.430  1.2647 -0.4736 -1.7338
 5739SOL     OW18410   0.270   4.974   5.729 -0.1786 -0.0721 -0.5365
 5739SOL    HW118411   0.265   5.067   5.706  0.9664 -0.0289 -0.6465
 5739SOL    HW218412   0.330   4.971   5.803 -2.0656 -0.4721  1.0767
 5740SOL     OW18413   6.734   3.968   5.495 -0.4040 -0.6076  0.5537
 5740SOL    HW118414   6.745   3.934   5.406  0.7253 -2.4291  1.3436
 5740SOL    HW218415   6.705   3.893   5.546 -0.7109  0.3363  1.7967
 5741SOL     OW18416   6.448   3.941   5.819  0.1795 -0.2901  0.5182
 5741SOL    HW118417   6.362   3.936   5.777  1.1664 -1.0812 -1.5290
 5741SOL    HW218418   6.488   4.021   5.783  1.0440 -0.9705 -0.0692
 5742SOL     OW18419   1.414   4.057   4.906  0.2130 -0.3687 -0.1933
 5742SOL    HW118420   1.366   4.116   4.964  0.7261 -1.0305  0.9511
 5742SOL    HW218421   1.501   4.095   4.899  0.7524 -1.2808  1.0842
 5743SOL     OW18422   0.066   1.523   5.869  0.9083 -0.0065 -0.1198
 5743SOL    HW118423   0.112   1.577   5.805  1.0537  0.9721  0.7843
 5743SOL    HW218424   0.107   1.437   5.862  2.0379  0.5251 -0.1975
 5744SOL     OW18425   6.084   4.482   2.656 -0.2405 -0.5879 -0.6812
 5744SOL    HW118426   6.071   4.516   2.745 -2.3048  0.4074 -1.2929
 5744SOL    HW218427   6.172   4.511   2.632  0.4841 -1.1241  1.0999
 5745SOL     OW18428   5.586   1.515   6.448 -0.3086  0.3873  0.0622
 5745SOL    HW118429   5.560   1.537   6.359  1.3748  1.3294 -0.2465
 5745SOL    HW218430   5.524   1.563   6.504 -1.4591 -0.3280 -0.5798
 5746SOL     OW18431   8.080   5.536   2.206 -0.0106  0.1370  0.2276
 5746SOL    HW118432   8.148   5.518   2.271 -1.0674  2.4441  2.1163
 5746SOL    HW218433   8.000   5.548   2.257 -1.2576  0.3336 -1.6627
 5747SOL     OW18434   0.945   0.809   8.167 -0.1832  0.2453  0.1751
 5747SOL    HW118435   0.849   0.812   8.160 -0.3352 -0.6694  1.5263
 5747SOL    HW218436   0.970   0.898   8.190 -0.7388  0.4161  0.1388
 5748SOL     OW18437   1.520   1.005   3.350 -0.6730 -0.8302  0.1039
 5748SOL    HW118438   1.590   1.060   3.315  0.6883 -1.6127  1.5074
 5748SOL    HW218439   1.455   1.003   3.280  0.3375  0.5510 -0.9398
 5749SOL     OW18440   0.036   6.833   5.152  0.6468 -0.6203 -0.7711
 5749SOL    HW118441  -0.055   6.860   5.137  0.7057  1.6748  2.1955
 5749SOL    HW218442   0.088   6.897   5.103  0.6637  0.4154  0.5453
 5750SOL     OW18443   4.602   1.375   0.268  0.4638  0.5369 -0.4769
 5750SOL    HW118444   4.664   1.448   0.275  0.7506  0.2439  0.1722
 5750SOL    HW218445   4.650   1.300   0.304  0.1813  0.0224 -1.1679
 5751SOL     OW18446   0.219   2.053   3.231 -0.0946 -0.3082 -0.0295
 5751SOL    HW118447   0.225   1.984   3.297 -0.3696 -0.0176  0.3015
 5751SOL    HW218448   0.310   2.068   3.204  0.1091  0.1723  0.9106
 5752SOL     OW18449   6.388   5.832   4.527  0.2056 -0.7838 -0.4101
 5752SOL    HW118450   6.301   5.809   4.494 -0.0897 -0.5116  0.1698
 5752SOL    HW218451   6.371   5.901   4.592  0.9754  0.5025 -1.5139
 5753SOL     OW18452   2.602   2.399   1.264 -0.5317 -0.4583 -0.0180
 5753SOL    HW118453   2.529   2.462   1.264 -0.2709 -0.1462 -0.4158
 5753SOL    HW218454   2.644   2.412   1.179  1.0165  0.5815  0.8536
 5754SOL     OW18455   5.560   5.531   8.351  0.1354  0.5022 -0.0434
 5754SOL    HW118456   5.604   5.497   8.273 -0.7244  0.4463 -0.5299
 5754SOL    HW218457   5.479   5.569   8.317 -0.5984 -0.1611  0.9057
 5755SOL     OW18458   6.854   3.826   3.685  0.5467 -0.0076 -1.0006
 5755SOL    HW118459   6.832   3.906   3.734  3.5578 -0.0825  0.7001
 5755SOL    HW218460   6.778   3.811   3.628 -1.2267  2.5910  0.4827
 5756SOL     OW18461   4.321   6.015   8.357 -0.4282 -0.1253  0.6158
 5756SOL    HW118462   4.412   6.026   8.385 -0.2804 -2.1233  1.1018
 5756SOL    HW218463   4.297   6.099   8.318  2.0923 -0.0012 -0.8699
 5757SOL     OW18464   6.240   6.731   3.908  0.3701 -0.2768  0.4009
 5757SOL    HW118465   6.322   6.684   3.923  1.4428  1.4749  0.2453
 5757SOL    HW218466   6.230   6.734   3.813 -0.7433 -1.8454  0.4201
 5758SOL     OW18467   7.506   6.111   0.990 -0.4743  0.2946 -0.1363
 5758SOL    HW118468   7.501   6.094   1.084 -1.1033  1.7727  0.1154
 5758SOL    HW218469   7.600   6.116   0.972 -0.3538  1.3352  0.6820
 5759SOL     OW18470   2.228   3.162   1.930  0.6973  0.7621  0.6089
 5759SOL    HW118471   2.155   3.108   1.960  0.1633 -0.3058 -2.2712
 5759SOL    HW218472   2.304   3.104   1.935  0.8463  0.9956  1.0797
 5760SOL     OW18473   2.965   2.228   3.973  0.0919 -0.4049  0.4406
 5760SOL    HW118474   3.000   2.213   3.885 -1.4677  0.9211 -0.4710
 5760SOL    HW218475   2.999   2.314   3.998  0.4375 -0.7269  1.1123
 5761SOL     OW18476   6.954   6.582   7.535 -0.7149 -0.7945 -0.5545
 5761SOL    HW118477   6.969   6.600   7.443 -0.7223 -0.1340 -0.4289
 5761SOL    HW218478   7.037   6.545   7.566  0.3044  1.6879 -0.1565
 5762SOL     OW18479   2.504   3.147   0.372 -0.6008 -0.4772 -0.2050
 5762SOL    HW118480   2.576   3.100   0.413 -0.3189  0.8120  0.8203
 5762SOL    HW218481   2.454   3.183   0.445 -0.6559  1.0303 -0.9559
 5763SOL     OW18482   1.641   2.822   1.970 -0.2110  0.1378 -0.0211
 5763SOL    HW118483   1.579   2.826   1.897  0.1581 -1.5417 -0.4600
 5763SOL    HW218484   1.595   2.776   2.039 -0.3160  1.1231  0.5840
 5764SOL     OW18485   3.152   3.352   6.948  0.2887 -0.3845 -0.4297
 5764SOL    HW118486   3.129   3.386   7.034 -0.6317 -1.4171 -0.2391
 5764SOL    HW218487   3.191   3.267   6.965 -3.3216 -2.3919 -1.1021
 5765SOL     OW18488   0.892   8.175   1.342 -0.3637 -0.2160 -0.4732
 5765SOL    HW118489   0.934   8.102   1.388  0.5362  0.2258 -0.5699
 5765SOL    HW218490   0.948   8.191   1.266 -0.9669  0.0957 -0.8597
 5766SOL     OW18491   3.632   8.542   1.180  0.3401 -0.0524  0.2314
 5766SOL    HW118492   3.613   8.615   1.240  1.4738 -0.4050  1.0650
 5766SOL    HW218493   3.727   8.544   1.170  0.1409  0.2561 -1.9374
 5767SOL     OW18494   5.940   2.323   0.716 -0.5417 -0.3798 -0.0603
 5767SOL    HW118495   6.002   2.266   0.763 -0.6130  0.1155  0.6476
 5767SOL    HW218496   5.995   2.390   0.675 -0.6682  0.8402  1.6522
 5768SOL     OW18497   6.374   2.802   2.442 -0.0647  0.2994  0.0872
 5768SOL    HW118498   6.455   2.752   2.455 -0.5489 -0.1331  1.7710
 5768SOL    HW218499   6.320   2.746   2.387  0.1057 -0.2078  0.4302
 5769SOL     OW18500   7.008   2.342   7.526  0.5392  0.0948  0.1988
 5769SOL    HW118501   7.095   2.344   7.487  0.4865  1.3726  0.0949
 5769SOL    HW218502   7.023   2.337   7.620  0.7704  1.5249  0.2577
 5770SOL     OW18503   3.190   7.204   6.027  0.6205  0.1501  0.0568
 5770SOL    HW118504   3.268   7.259   6.034  0.8647 -0.0542 -0.8370
 5770SOL    HW218505   3.203   7.155   5.945 -0.1534 -0.3474  0.2186
 5771SOL     OW18506   7.808   4.430   4.524  0.0568 -0.0867  0.5002
 5771SOL    HW118507   7.741   4.476   4.575  0.8969 -1.1559  2.7426
 5771SOL    HW218508   7.864   4.499   4.489 -0.9504  0.7251  0.4346
 5772SOL     OW18509   7.318   1.404   3.261 -0.8991 -0.6201 -0.0526
 5772SOL    HW118510   7.405   1.371   3.285 -0.9012 -1.7292 -1.4262
 5772SOL    HW218511   7.302   1.368   3.174 -2.9983 -0.9550  0.4086
 5773SOL     OW18512   3.906   6.472   6.582 -0.7295  0.1048  0.3345
 5773SOL    HW118513   3.853   6.546   6.611 -2.2594 -1.7085  2.6236
 5773SOL    HW218514   3.842   6.407   6.552  0.4301 -0.9391  0.0141
 5774SOL     OW18515   5.715   6.148   7.976 -0.6760  0.1921 -0.5306
 5774SOL    HW118516   5.689   6.228   7.930 -1.2422  0.1197 -0.3490
 5774SOL    HW218517   5.640   6.089   7.967 -1.0316  0.3701  0.9113
 5775SOL     OW18518   5.387   4.370   3.214  0.1476  0.2164 -0.3105
 5775SOL    HW118519   5.315   4.346   3.273 -0.8279  0.3039 -1.4246
 5775SOL    HW218520   5.376   4.312   3.138  1.9821 -0.5885 -0.0040
 5776SOL     OW18521   4.536   4.354   0.389 -0.3525  0.6107 -0.4822
 5776SOL    HW118522   4.507   4.429   0.337 -1.8146 -0.6469 -1.5750
 5776SOL    HW218523   4.478   4.354   0.465 -0.1225  0.8047 -0.3097
 5777SOL     OW18524   7.561   5.214   5.274 -0.4328 -0.4411 -0.2787
 5777SOL    HW118525   7.520   5.268   5.342 -0.1875 -0.3245 -0.2192
 5777SOL    HW218526   7.570   5.128   5.315 -2.0890 -0.9226 -0.8494
 5778SOL     OW18527   4.829   0.928   6.315  0.2183  0.2647  0.2465
 5778SOL    HW118528   4.885   0.934   6.238 -3.2491  1.9604 -2.4317
 5778SOL    HW218529   4.860   0.998   6.373  1.2747  0.6811 -0.7887
 5779SOL     OW18530   0.297   6.494   7.800 -0.8351 -0.0072 -0.5529
 5779SOL    HW118531   0.369   6.501   7.737  0.1112  1.5847  0.6211
 5779SOL    HW218532   0.229   6.552   7.765 -0.9992 -0.4436 -0.9629
 5780SOL     OW18533   4.921   2.669   1.301 -0.4805  0.6471 -0.1949
 5780SOL    HW118534   4.988   2.601   1.300  0.0637  1.0919  1.6210
 5780SOL    HW218535   4.843   2.624   1.335 -0.1531  0.8521  0.8905
 5781SOL     OW18536   8.151   0.221   3.882  0.2946 -0.5554 -0.6859
 5781SOL    HW118537   8.114   0.229   3.794 -0.9243 -0.5931 -0.1943
 5781SOL    HW218538   8.236   0.266   3.877 -0.4033  0.7230 -1.4991
 5782SOL     OW18539   6.091   4.003   2.622  0.0064  0.1392 -0.2310
 5782SOL    HW118540   6.167   4.039   2.669  0.7223 -0.4827 -0.8887
 5782SOL    HW218541   6.025   3.989   2.691  1.7899 -2.8525  1.0525
 5783SOL     OW18542   4.998   2.991   1.551 -0.5039 -0.6395  0.3361
 5783SOL    HW118543   5.055   2.932   1.501  0.0452 -0.6806  0.9989
 5783SOL    HW218544   5.057   3.056   1.588 -0.7587 -1.2046  1.7846
 5784SOL     OW18545   0.327   6.321   0.154 -0.0483 -0.2534  0.5913
 5784SOL    HW118546   0.377   6.310   0.073  1.1397  2.2830  0.8908
 5784SOL    HW218547   0.393   6.342   0.220 -1.1305 -1.0257  1.9655
 5785SOL     OW18548   3.790   6.824   2.659  0.4509 -0.0765  0.4367
 5785SOL    HW118549   3.778   6.889   2.728  0.9477  1.3960 -0.8168
 5785SOL    HW218550   3.706   6.821   2.613  0.7301  0.4146 -0.1129
 5786SOL     OW18551   4.172   6.798   5.886  0.4838  0.3684 -0.0140
 5786SOL    HW118552   4.100   6.860   5.878 -1.0497 -1.2448  0.6771
 5786SOL    HW218553   4.244   6.839   5.837 -0.6215  2.3848 -0.0783
 5787SOL     OW18554   5.833   2.959   4.787 -0.0511 -0.1723  0.2345
 5787SOL    HW118555   5.927   2.943   4.785 -0.1817 -1.5541  2.3254
 5787SOL    HW218556   5.822   3.047   4.751  2.0178  0.0314  0.0230
 5788SOL     OW18557   1.696   7.813   3.521  0.1916 -0.6575  0.7203
 5788SOL    HW118558   1.766   7.749   3.529  1.5741  0.5124 -1.0742
 5788SOL    HW218559   1.728   7.890   3.567  1.2855  0.7182 -2.1121
 5789SOL     OW18560   4.501   7.491   5.963 -0.4759 -0.5301 -0.6827
 5789SOL    HW118561   4.467   7.477   6.051  0.1642 -1.1493 -0.5281
 5789SOL    HW218562   4.428   7.472   5.905 -0.9501  0.0455 -0.2802
 5790SOL     OW18563   7.246   6.198   5.235 -0.2705 -0.2257  0.0190
 5790SOL    HW118564   7.326   6.236   5.199  0.7760 -1.9101  0.4343
 5790SOL    HW218565   7.195   6.273   5.266  0.3075  1.0112 -1.8758
 5791SOL     OW18566   7.996   2.182   5.216 -0.3241  0.0362  0.9101
 5791SOL    HW118567   8.061   2.248   5.191 -2.1634  1.7477  0.4178
 5791SOL    HW218568   7.988   2.191   5.311  0.2585 -0.3045  0.9975
 5792SOL     OW18569   4.224   3.599   5.541  0.0389  0.4243 -0.5774
 5792SOL    HW118570   4.248   3.510   5.568 -2.0444  0.0596  0.2677
 5792SOL    HW218571   4.298   3.653   5.566  0.6751 -0.8473  0.3816
 5793SOL     OW18572   8.327   7.143   1.975  0.9842  0.1454  0.3174
 5793SOL    HW118573   8.338   7.191   1.893 -1.0102  0.4710  0.2125
 5793SOL    HW218574   8.373   7.196   2.041  0.4804  1.1657 -0.1465
 5794SOL     OW18575   7.533   8.218   7.941 -0.4075  0.6041  0.3846
 5794SOL    HW118576   7.552   8.272   7.865 -1.3045 -0.0899 -0.3522
 5794SOL    HW218577   7.555   8.129   7.914 -1.3203  0.2668  0.7044
 5795SOL     OW18578   1.203   4.452   1.178  0.5065 -0.4787 -0.0545
 5795SOL    HW118579   1.161   4.503   1.109  1.3785 -0.7234 -0.7894
 5795SOL    HW218580   1.130   4.416   1.229 -0.1286  0.9529  0.0877
 5796SOL     OW18581   1.562   0.677   1.341 -0.1225 -0.2770 -0.2219
 5796SOL    HW118582   1.580   0.584   1.331  1.2042 -0.2265  1.2458
 5796SOL    HW218583   1.632   0.709   1.399 -2.2948  0.9690  1.9192
 5797SOL     OW18584   2.769   0.934   0.011 -0.3680  0.4690  0.2118
 5797SOL    HW118585   2.845   0.940   0.069 -0.2658  2.2245 -0.0572
 5797SOL    HW218586   2.757   0.840  -0.002  2.9864  0.1092 -1.3489
 5798SOL     OW18587   6.442   3.685   5.212 -0.1108 -0.0037 -0.5800
 5798SOL    HW118588   6.371   3.731   5.168 -1.0089 -1.3476 -0.5684
 5798SOL    HW218589   6.407   3.598   5.232  0.8874 -0.0695  1.1206
 5799SOL     OW18590   2.241   5.156   5.476 -0.0522 -0.0933  0.0966
 5799SOL    HW118591   2.186   5.086   5.510 -1.7772  0.1844 -1.9228
 5799SOL    HW218592   2.246   5.220   5.547 -0.3290 -1.2133  1.1574
 5800SOL     OW18593   2.577   4.359   5.978  0.5418  0.5172  0.0952
 5800SOL    HW118594   2.571   4.407   6.061  1.6738  1.0848 -0.1277
 5800SOL    HW218595   2.505   4.296   5.981 -0.7131  1.9106  0.6095
 5801SOL     OW18596   3.283   7.967   3.928  0.2339 -0.9780  0.2933
 5801SOL    HW118597   3.249   7.971   4.018 -0.0740 -2.6980  0.2873
 5801SOL    HW218598   3.354   7.903   3.932 -0.0420 -1.3612 -0.7656
 5802SOL     OW18599   7.746   7.994   2.843 -0.3834  0.0252  0.0520
 5802SOL    HW118600   7.738   7.917   2.788  0.0774  1.3258 -1.9450
 5802SOL    HW218601   7.754   8.067   2.781 -3.4178  2.0487  1.7828
 5803SOL     OW18602   7.445   4.882   8.498  0.3143 -0.2430 -0.3478
 5803SOL    HW118603   7.490   4.846   8.421 -0.1580 -3.8139  0.8733
 5803SOL    HW218604   7.354   4.855   8.487  0.5047 -2.2775  2.0903
 5804SOL     OW18605   0.195   4.353   0.138 -0.0495  0.1490  0.2999
 5804SOL    HW118606   0.216   4.379   0.049 -1.3245 -0.0391 -0.0793
 5804SOL    HW218607   0.222   4.427   0.192  1.6648 -0.1420 -0.1040
 5805SOL     OW18608   3.943   5.572   4.555  0.1913  0.2258  0.3120
 5805SOL    HW118609   3.942   5.615   4.641  0.6407 -0.5241  0.7040
 5805SOL    HW218610   4.015   5.614   4.508  0.5310  0.0174  0.6384
 5806SOL     OW18611   5.240   1.734   0.613  0.4196 -0.3375  0.3851
 5806SOL    HW118612   5.260   1.804   0.550  0.8946  0.5523  1.4822
 5806SOL    HW218613   5.281   1.656   0.575  2.5226  0.6083  0.5611
 5807SOL     OW18614   1.382   4.404   7.446 -0.1633  0.4255  0.2503
 5807SOL    HW118615   1.385   4.491   7.485 -0.4460  0.0553  1.1052
 5807SOL    HW218616   1.335   4.350   7.509 -0.0515 -0.3387 -0.3002
 5808SOL     OW18617   0.221   4.194   3.516 -0.0104 -0.1612 -0.1982
 5808SOL    HW118618   0.243   4.102   3.497  0.3563  0.2996 -2.2235
 5808SOL    HW218619   0.289   4.244   3.471 -2.0728  1.1825 -1.9726
 5809SOL     OW18620   2.903   7.529   1.160  0.3150 -0.4412  0.3973
 5809SOL    HW118621   2.925   7.440   1.188  0.1265  0.2410  2.9186
 5809SOL    HW218622   2.817   7.546   1.198 -0.1451  0.4469 -0.9851
 5810SOL     OW18623   7.425   1.989   6.271  0.3758 -0.1146 -0.7456
 5810SOL    HW118624   7.396   1.913   6.320  0.1769  0.4184 -0.0161
 5810SOL    HW218625   7.521   1.986   6.277  0.3305  0.4666  0.5091
 5811SOL     OW18626   3.421   2.277   6.029  0.1460 -0.1808  0.5670
 5811SOL    HW118627   3.431   2.270   6.124  0.4927  0.5337  0.5922
 5811SOL    HW218628   3.418   2.371   6.012 -0.4699 -0.3065 -0.0799
 5812SOL     OW18629   3.133   1.852   8.301  0.1364 -0.1748 -0.4194
 5812SOL    HW118630   3.122   1.837   8.396 -0.2695 -0.3030 -0.4805
 5812SOL    HW218631   3.120   1.946   8.290 -0.2241 -0.2189 -0.3957
 5813SOL     OW18632   2.082   6.323   6.467 -0.4214 -0.4737 -0.0867
 5813SOL    HW118633   2.089   6.257   6.398 -1.5669 -0.2729 -0.4118
 5813SOL    HW218634   2.122   6.401   6.428  1.5380 -1.1092  0.5355
 5814SOL     OW18635   5.037   4.052   7.624  0.5254  0.3093 -0.2025
 5814SOL    HW118636   4.970   4.017   7.566 -1.0300  0.4658  1.4242
 5814SOL    HW218637   5.077   3.974   7.664 -1.3029  0.2371  1.6245
 5815SOL     OW18638   1.570   2.282   3.615 -0.1996  0.4384  0.1141
 5815SOL    HW118639   1.655   2.277   3.573 -0.6740  0.0648 -0.8304
 5815SOL    HW218640   1.517   2.336   3.556 -0.5828  0.7798  0.7538
 5816SOL     OW18641   6.453   4.507   3.872  0.2535  0.5683 -0.7063
 5816SOL    HW118642   6.509   4.564   3.924 -0.2112 -0.5574  1.1094
 5816SOL    HW218643   6.383   4.563   3.840  0.3925  1.2209  0.1282
 5817SOL     OW18644   2.327   6.325   7.653 -0.1917  0.2356 -0.6328
 5817SOL    HW118645   2.283   6.382   7.716  3.0357  0.4995  1.6015
 5817SOL    HW218646   2.298   6.237   7.676  0.6828  0.3605  1.0621
 5818SOL     OW18647   5.594   4.353   6.983  0.2080  0.3274 -0.0384
 5818SOL    HW118648   5.508   4.324   6.951  0.5953 -0.6612 -0.2292
 5818SOL    HW218649   5.586   4.448   6.990 -0.3638  0.4480 -1.7191
 5819SOL     OW18650   8.401   1.634   1.939 -0.0786 -0.3759  0.0836
 5819SOL    HW118651   8.430   1.692   1.869  0.2118  0.4548  0.8654
 5819SOL    HW218652   8.309   1.656   1.954  0.4941  1.2544  1.6214
 5820SOL     OW18653   8.135   4.074   8.157 -0.6038  0.6219 -0.0140
 5820SOL    HW118654   8.096   4.082   8.069 -0.7246  1.1868  0.0867
 5820SOL    HW218655   8.091   4.142   8.209  0.3719  1.1407  0.1601
 5821SOL     OW18656   2.385   4.518   5.154  0.2597  0.1823 -0.0749
 5821SOL    HW118657   2.347   4.531   5.241  1.5783  0.5333  0.4596
 5821SOL    HW218658   2.402   4.606   5.121 -0.8638  0.0804 -0.9994
 5822SOL     OW18659   4.635   5.176   8.415  0.3649  0.1210  0.0406
 5822SOL    HW118660   4.555   5.214   8.379  0.6432  0.7982  0.1212
 5822SOL    HW218661   4.612   5.086   8.435  0.1734 -0.2554 -1.7487
 5823SOL     OW18662   5.957   3.876   7.307 -0.7809 -0.2338  0.2465
 5823SOL    HW118663   5.904   3.877   7.227 -1.4541  2.6378  0.6286
 5823SOL    HW218664   6.034   3.929   7.285 -0.6155 -0.0392  1.2668
 5824SOL     OW18665   0.744   0.523   3.876  0.5485 -0.1608 -0.3856
 5824SOL    HW118666   0.662   0.516   3.826 -0.2766 -0.3843  0.9389
 5824SOL    HW218667   0.810   0.547   3.811 -0.2061 -1.7487 -1.8346
 5825SOL     OW18668   0.312   1.342   4.674  0.1422 -0.0743  0.3513
 5825SOL    HW118669   0.322   1.262   4.624 -1.4364  0.5909 -1.1370
 5825SOL    HW218670   0.300   1.411   4.608 -0.9249  1.0057  1.5974
 5826SOL     OW18671   1.681   4.914   4.502 -0.0229  0.0560  0.1431
 5826SOL    HW118672   1.765   4.958   4.517 -0.5176  0.2960  2.5662
 5826SOL    HW218673   1.634   4.922   4.585 -1.8039 -1.4938 -0.6326
 5827SOL     OW18674   3.237   5.770   3.080  0.7737  0.1587  0.2060
 5827SOL    HW118675   3.215   5.847   3.132 -0.1695  0.8098 -1.1142
 5827SOL    HW218676   3.205   5.790   2.993  0.1043 -1.9250 -0.0730
 5828SOL     OW18677   3.607   3.303   8.295 -0.2560  0.0749  0.1382
 5828SOL    HW118678   3.524   3.338   8.328 -0.1474  1.3742 -0.8738
 5828SOL    HW218679   3.657   3.381   8.270  0.3201 -0.7665 -1.4874
 5829SOL     OW18680   6.562   2.146   1.879 -0.0430 -0.1748 -0.2574
 5829SOL    HW118681   6.592   2.208   1.814 -0.6273  0.2442 -0.1369
 5829SOL    HW218682   6.613   2.166   1.957 -1.5262  1.4320  0.3593
 5830SOL     OW18683   1.321   6.464   0.636  0.3011 -0.0545  0.0040
 5830SOL    HW118684   1.233   6.427   0.638  0.8640 -1.4890 -0.3229
 5830SOL    HW218685   1.335   6.497   0.724 -0.1328 -0.9059  0.4097
 5831SOL     OW18686   2.421   2.577   6.251 -0.2912 -0.3397  0.0863
 5831SOL    HW118687   2.382   2.580   6.164 -0.9220 -0.6363  0.3546
 5831SOL    HW218688   2.458   2.664   6.264  0.2943 -0.4629 -0.6968
 5832SOL     OW18689   1.779   6.868   1.869 -0.3130 -0.6748  0.6632
 5832SOL    HW118690   1.817   6.921   1.799  0.2466  0.6238  1.8923
 5832SOL    HW218691   1.842   6.797   1.882 -1.0377 -1.6722 -0.9561
 5833SOL     OW18692   2.378   3.656   5.303  0.0711  0.3671  0.1086
 5833SOL    HW118693   2.444   3.724   5.288  2.6941 -2.2994 -1.4961
 5833SOL    HW218694   2.396   3.623   5.391  0.4686  0.0864 -0.0752
 5834SOL     OW18695   0.636   0.834   5.150 -0.5813 -0.0691 -0.0502
 5834SOL    HW118696   0.660   0.809   5.239 -0.3991 -1.0385 -0.3577
 5834SOL    HW218697   0.661   0.927   5.143 -0.0760 -0.1411  0.7251
 5835SOL     OW18698   6.452   2.884   5.877 -0.4019 -0.3070  0.3595
 5835SOL    HW118699   6.392   2.934   5.932 -0.5683 -1.6061  1.4057
 5835SOL    HW218700   6.395   2.840   5.813 -0.3039  0.4270 -0.2429
 5836SOL     OW18701   0.011   5.900   7.622  0.1288 -0.4182  0.2664
 5836SOL    HW118702   0.005   5.899   7.717  2.8169 -2.4336  0.5431
 5836SOL    HW218703  -0.028   5.817   7.594  0.6248 -0.4869 -0.2471
 5837SOL     OW18704   1.531   6.765   1.888  0.3680  0.1583 -0.1467
 5837SOL    HW118705   1.608   6.816   1.861  0.9717 -0.6731 -0.0374
 5837SOL    HW218706   1.464   6.831   1.907  1.2415  0.9290  0.3277
 5838SOL     OW18707   8.602   6.588   7.047  0.4588 -0.0904 -0.2810
 5838SOL    HW118708   8.685   6.563   7.008  0.1835  0.9529 -1.6533
 5838SOL    HW218709   8.618   6.674   7.086  0.4412 -0.6329  0.9388
 5839SOL     OW18710   5.943   7.860   2.816 -0.8863 -0.5856 -0.1452
 5839SOL    HW118711   5.905   7.782   2.857 -1.2547 -0.4724 -0.2701
 5839SOL    HW218712   5.867   7.911   2.786 -0.6440 -0.2145 -0.1295
 5840SOL     OW18713   1.189   0.962   8.473 -0.5316  0.0935  0.2473
 5840SOL    HW118714   1.253   1.028   8.447 -1.7902  2.0808  1.8986
 5840SOL    HW218715   1.239   0.903   8.530  0.1155  0.9415  0.5826
 5841SOL     OW18716   5.994   1.411   1.270  0.7916 -0.1663  0.1701
 5841SOL    HW118717   6.039   1.494   1.291  2.7568 -1.1916  0.2822
 5841SOL    HW218718   5.910   1.417   1.315  1.1853  1.4744  0.7653
 5842SOL     OW18719   7.915   5.449   5.314  0.2737 -0.3604  0.1091
 5842SOL    HW118720   7.858   5.457   5.238  1.2084  0.9239 -0.4866
 5842SOL    HW218721   7.875   5.506   5.380 -0.3052 -1.1494  0.4577
 5843SOL     OW18722   2.418   5.122   7.254  0.2730 -0.7948  0.3217
 5843SOL    HW118723   2.436   5.216   7.245 -2.0645 -0.3343 -0.0692
 5843SOL    HW218724   2.433   5.104   7.347 -0.3922  0.2427  0.6406
 5844SOL     OW18725   4.349   2.668   0.893 -0.4934 -0.6367  0.1224
 5844SOL    HW118726   4.256   2.682   0.877 -0.4406  0.3140  0.6144
 5844SOL    HW218727   4.379   2.748   0.935  0.5099 -1.0116  0.1501
 5845SOL     OW18728   7.064   2.079   8.430 -0.3106  0.2301  0.0684
 5845SOL    HW118729   7.081   2.001   8.483 -1.0772  0.6394  0.9652
 5845SOL    HW218730   7.107   2.062   8.346 -1.1668 -1.5263 -0.0651
 5846SOL     OW18731   8.209   4.934   2.296  0.4820 -0.5164 -0.3247
 5846SOL    HW118732   8.117   4.912   2.280 -0.3397  2.2292  0.0633
 5846SOL    HW218733   8.249   4.934   2.209 -0.5354  0.7337 -0.8206
 5847SOL     OW18734   4.567   5.289   6.751 -0.1837 -0.2276 -0.6373
 5847SOL    HW118735   4.650   5.261   6.711  0.4771 -0.0700  0.5801
 5847SOL    HW218736   4.578   5.383   6.765 -0.6846 -0.1526 -0.7308
 5848SOL     OW18737   6.831   2.676   7.148  0.5302  0.6000  0.1863
 5848SOL    HW118738   6.844   2.744   7.213 -1.1409  1.1927 -0.0469
 5848SOL    HW218739   6.738   2.655   7.154  1.1199 -2.2815  0.8321
 5849SOL     OW18740   6.123   0.958   6.785 -0.4364 -0.0749  0.6106
 5849SOL    HW118741   6.107   0.929   6.695  1.7053  0.5746 -0.0465
 5849SOL    HW218742   6.036   0.974   6.821 -1.3531 -0.4587 -1.3066
 5850SOL     OW18743   7.576   1.103   8.481  0.6078  0.1711 -0.3268
 5850SOL    HW118744   7.663   1.080   8.512  1.0299  2.0477 -0.0155
 5850SOL    HW218745   7.517   1.047   8.532  1.5754 -0.5329  0.0471
 5851SOL     OW18746   3.532   5.687   8.182 -0.1240  0.2293 -0.2994
 5851SOL    HW118747   3.550   5.718   8.271  0.7313 -0.8578 -0.0764
 5851SOL    HW218748   3.562   5.758   8.125  1.8566 -0.1468  0.1979
 5852SOL     OW18749   6.691   3.900   2.055  0.3294  0.7115  0.2990
 5852SOL    HW118750   6.724   3.816   2.087  1.5962  0.9581 -0.2903
 5852SOL    HW218751   6.743   3.965   2.103 -0.5058  1.1613  0.6077
 5853SOL     OW18752   3.726   8.325   0.023  0.0072 -0.2759  0.5257
 5853SOL    HW118753   3.806   8.277   0.001 -0.1913  0.1110 -1.2441
 5853SOL    HW218754   3.745   8.367   0.107  1.7873  0.0612  0.0089
 5854SOL     OW18755   7.129   2.106   2.031  0.9232 -0.1445 -0.1938
 5854SOL    HW118756   7.147   2.111   2.125 -0.0006  0.8811 -0.0526
 5854SOL    HW218757   7.038   2.076   2.026  0.3663  1.5500 -0.6998
 5855SOL     OW18758   3.428   6.833   2.054 -0.5697 -0.3537 -0.0911
 5855SOL    HW118759   3.449   6.892   1.981  0.7945 -1.5298 -0.6901
 5855SOL    HW218760   3.400   6.892   2.124  0.4101  0.9917 -0.7742
 5856SOL     OW18761   3.579   6.822   2.477 -1.3029  0.3577 -0.0863
 5856SOL    HW118762   3.567   6.727   2.485 -1.2373  0.3540 -0.0239
 5856SOL    HW218763   3.622   6.834   2.392  0.1499  0.1926  0.5975
 5857SOL     OW18764   5.022   4.974   7.374 -0.0961 -0.2110  0.8359
 5857SOL    HW118765   5.035   5.067   7.391  0.1589  0.4749 -2.4436
 5857SOL    HW218766   4.927   4.964   7.362  0.0953  0.2668 -1.5080
 5858SOL     OW18767   4.391   4.031   0.931 -0.4438  0.2466  0.2314
 5858SOL    HW118768   4.469   4.000   0.977 -0.3098 -0.6433 -0.5410
 5858SOL    HW218769   4.424   4.063   0.847 -0.7795  0.9963  0.3802
 5859SOL     OW18770   7.732   8.233   7.399 -0.4917 -0.2536  0.0913
 5859SOL    HW118771   7.782   8.217   7.479  1.2465  1.4584 -0.5828
 5859SOL    HW218772   7.712   8.146   7.365  1.1432 -1.0010  0.9377
 5860SOL     OW18773   1.729   0.301   7.607  0.3647 -0.2749 -0.0050
 5860SOL    HW118774   1.720   0.271   7.517 -0.9435  3.0150 -1.1208
 5860SOL    HW218775   1.804   0.360   7.606  0.7997 -0.7640  1.2697
 5861SOL     OW18776   4.509   3.347   3.664 -0.0319  0.2231 -0.1216
 5861SOL    HW118777   4.537   3.314   3.579  0.9019 -1.0911  0.6502
 5861SOL    HW218778   4.507   3.269   3.720  1.5792  1.3516  1.6155
 5862SOL     OW18779   3.318   4.163   3.379 -0.1093  0.6115  0.4450
 5862SOL    HW118780   3.319   4.256   3.360  0.3523  0.4164 -0.5297
 5862SOL    HW218781   3.327   4.157   3.474  0.2470  1.5409  0.4700
 5863SOL     OW18782   5.150   7.306   5.450 -0.0711  0.0181 -0.5797
 5863SOL    HW118783   5.224   7.366   5.438 -0.3008  0.4203 -0.0280
 5863SOL    HW218784   5.108   7.303   5.363  0.6411 -0.2931 -0.9188
 5864SOL     OW18785   3.666   3.096   6.011  0.7280 -0.0913 -0.0151
 5864SOL    HW118786   3.616   3.076   6.091  0.9528  1.6989  0.6241
 5864SOL    HW218787   3.633   3.182   5.984  1.8690  0.0860 -0.8792
 5865SOL     OW18788   6.786   5.408   1.152 -0.5235 -0.0194  0.0378
 5865SOL    HW118789   6.709   5.459   1.128  0.7356  1.6314 -0.6658
 5865SOL    HW218790   6.858   5.470   1.150  0.7047 -1.2918  1.6917
 5866SOL     OW18791   8.318   4.572   3.965  0.1870 -0.5093 -0.1270
 5866SOL    HW118792   8.370   4.556   4.044  1.7202 -0.6553 -1.1251
 5866SOL    HW218793   8.290   4.485   3.937  0.8998 -0.6101 -0.5509
 5867SOL     OW18794   0.744   4.704   2.508 -0.1126 -0.2546  0.2525
 5867SOL    HW118795   0.667   4.662   2.469 -0.9761  1.3529  0.1213
 5867SOL    HW218796   0.714   4.731   2.595  0.8670 -1.1312  0.8828
 5868SOL     OW18797   0.381   3.247   1.003 -0.0150  0.0363  0.2404
 5868SOL    HW118798   0.400   3.300   0.926  0.3043  1.7017  1.4110
 5868SOL    HW218799   0.296   3.208   0.985  0.1891  0.1728 -1.0679
 5869SOL     OW18800   4.724   4.739   0.052 -0.4739  0.0890  0.1002
 5869SOL    HW118801   4.763   4.657   0.084 -1.8180 -1.1588 -1.2687
 5869SOL    HW218802   4.725   4.797   0.127  1.1686 -0.9402  0.9335
 5870SOL     OW18803   7.628   2.698   0.231 -0.3214 -0.1959  0.2043
 5870SOL    HW118804   7.721   2.708   0.250 -0.5608  0.3693  1.1066
 5870SOL    HW218805   7.611   2.764   0.163 -0.6397  1.7055  2.0288
 5871SOL     OW18806   0.168   6.274   8.441 -0.2929 -0.4674 -0.2583
 5871SOL    HW118807   0.260   6.249   8.441 -0.2860 -0.4876  0.7594
 5871SOL    HW218808   0.133   6.239   8.359  0.7569  0.1581 -1.0044
 5872SOL     OW18809   0.372   1.936   0.623 -0.0458 -0.2547  0.1491
 5872SOL    HW118810   0.410   1.848   0.622 -0.0906 -0.2812  0.6220
 5872SOL    HW218811   0.309   1.936   0.550  0.1429 -0.5280 -0.0151
 5873SOL     OW18812   3.213   2.854   3.163 -0.5461 -0.2493 -0.1202
 5873SOL    HW118813   3.260   2.790   3.109 -0.5444  0.3826 -0.8979
 5873SOL    HW218814   3.152   2.802   3.215  0.2804 -0.9890  0.1360
 5874SOL     OW18815   7.610   5.926   3.162 -0.1683 -0.1112 -0.3382
 5874SOL    HW118816   7.561   5.849   3.191 -2.8625  1.5501 -0.1679
 5874SOL    HW218817   7.624   5.977   3.242 -2.3319  1.6184 -0.9795
 5875SOL     OW18818   2.263   1.154   7.860  0.1173 -0.6100 -0.4579
 5875SOL    HW118819   2.287   1.239   7.897  3.5216 -1.2200 -0.9119
 5875SOL    HW218820   2.333   1.134   7.797 -1.3545 -3.0912 -1.4623
 5876SOL     OW18821   0.190   4.525   0.568 -0.3046 -0.2197 -0.2981
 5876SOL    HW118822   0.147   4.464   0.508  1.6298 -3.0086  0.9124
 5876SOL    HW218823   0.188   4.480   0.653  1.7655  1.1175  0.5429
 5877SOL     OW18824   6.813   7.554   1.416  0.1358  0.0718 -0.1192
 5877SOL    HW118825   6.783   7.642   1.441  2.3718  0.5844  0.9360
 5877SOL    HW218826   6.737   7.498   1.432 -0.6740  1.4779  1.2639
 5878SOL     OW18827   7.721   5.889   6.318  0.0149  0.5487  0.2526
 5878SOL    HW118828   7.713   5.855   6.230 -1.5968  2.7936 -0.5850
 5878SOL    HW218829   7.796   5.843   6.356 -0.9380 -2.5132 -1.2521
 5879SOL     OW18830   7.555   0.336   5.285 -0.2446  0.5388  0.2748
 5879SOL    HW118831   7.634   0.287   5.305  0.4713  1.4600 -0.2116
 5879SOL    HW218832   7.571   0.374   5.199 -1.1862  0.8047  0.2026
 5880SOL     OW18833   5.021   8.274   0.046  0.7435  0.5491 -1.1354
 5880SOL    HW118834   5.028   8.341   0.114 -0.9619 -0.2432 -0.0892
 5880SOL    HW218835   5.004   8.193   0.095 -0.5737 -0.0311 -2.4805
 5881SOL     OW18836   3.532   8.335   5.801 -0.1784  0.0391  0.5156
 5881SOL    HW118837   3.523   8.425   5.768  0.8440 -0.1434 -0.3227
 5881SOL    HW218838   3.470   8.329   5.873 -0.6807  1.2413  0.1997
 5882SOL     OW18839   4.548   0.823   8.185 -0.1526 -0.3150  0.7219
 5882SOL    HW118840   4.478   0.773   8.145  0.1305  0.0855 -0.3057
 5882SOL    HW218841   4.533   0.814   8.279 -1.3042 -0.6126  0.5261
 5883SOL     OW18842   6.148   8.338   4.047 -0.6955  0.0754  0.2286
 5883SOL    HW118843   6.169   8.419   4.093 -1.1733 -0.2657  1.0598
 5883SOL    HW218844   6.222   8.326   3.986  0.2660  0.2109  1.3312
 5884SOL     OW18845   3.338   6.596   8.213 -0.0008  0.3199  0.1942
 5884SOL    HW118846   3.353   6.563   8.124 -0.4451 -0.5925  0.4432
 5884SOL    HW218847   3.260   6.550   8.243  1.2640 -0.9400  1.7903
 5885SOL     OW18848   1.955   1.825   7.345  0.7328 -0.4621 -0.2552
 5885SOL    HW118849   1.927   1.892   7.407 -2.4047 -0.1598 -1.8446
 5885SOL    HW218850   1.940   1.742   7.391 -0.3773 -0.2084 -0.1518
 5886SOL     OW18851   1.306   0.822   3.012 -0.3267  0.0865 -0.4026
 5886SOL    HW118852   1.312   0.828   2.917  2.6591  0.0590 -0.3130
 5886SOL    HW218853   1.310   0.913   3.042  0.4455  0.0075 -0.2617
 5887SOL     OW18854   5.342   0.662   4.041 -0.0990 -0.2550 -0.3176
 5887SOL    HW118855   5.414   0.648   4.102 -1.0224 -2.2282  0.4190
 5887SOL    HW218856   5.374   0.631   3.957 -0.1045 -1.2559  0.0365
 5888SOL     OW18857   3.602   4.040   4.255 -0.0909 -0.5959  0.7594
 5888SOL    HW118858   3.510   4.024   4.233  0.6691 -2.7982 -1.3371
 5888SOL    HW218859   3.609   4.135   4.262 -2.4401 -0.3461  0.5834
 5889SOL     OW18860   3.425   0.740   0.469 -0.3263 -0.1164  0.8694
 5889SOL    HW118861   3.481   0.817   0.454  1.6407 -1.5256  0.5661
 5889SOL    HW218862   3.445   0.714   0.559  0.5489 -1.4185  0.3183
 5890SOL     OW18863   2.410   0.984   4.684 -0.5666  0.0224 -0.5930
 5890SOL    HW118864   2.347   0.913   4.679 -2.1619  1.2741  0.4802
 5890SOL    HW218865   2.492   0.943   4.709 -1.6794 -1.3287  0.9757
 5891SOL     OW18866   1.057   1.978   0.411 -0.0616 -0.0703 -0.5153
 5891SOL    HW118867   1.151   1.967   0.401  0.4129  1.5682  1.3558
 5891SOL    HW218868   1.036   1.935   0.494 -0.6885  0.7763 -0.2179
 5892SOL     OW18869   7.450   6.299   4.375 -0.0532  0.2757  0.1632
 5892SOL    HW118870   7.379   6.277   4.436 -0.3300  1.3119  0.2347
 5892SOL    HW218871   7.530   6.271   4.420 -0.3575 -0.3215  0.3541
 5893SOL     OW18872   2.031   3.816   6.527  0.0241 -0.0729 -0.1041
 5893SOL    HW118873   1.958   3.761   6.557 -1.1708  1.9163  0.8257
 5893SOL    HW218874   2.004   3.905   6.547  1.0442  1.1032 -3.3043
 5894SOL     OW18875   1.415   4.952   1.080 -0.6103  0.0577 -0.5605
 5894SOL    HW118876   1.431   4.862   1.052 -1.0879 -0.9126  2.0028
 5894SOL    HW218877   1.395   4.945   1.173 -1.0882  2.7947 -0.3694
 5895SOL     OW18878   2.486   5.955   2.748 -0.3902  0.4135 -0.0644
 5895SOL    HW118879   2.492   5.993   2.661  1.0759 -2.5133 -1.4096
 5895SOL    HW218880   2.569   5.977   2.790 -0.1405 -0.0392 -0.3067
 5896SOL     OW18881   6.807   5.401   4.963 -0.3991 -0.7170 -0.0137
 5896SOL    HW118882   6.799   5.401   4.868 -0.2318 -2.0762 -0.0453
 5896SOL    HW218883   6.766   5.319   4.991  2.3582 -1.9555  0.7969
 5897SOL     OW18884   6.926   2.961   7.323  0.0814 -0.1862  0.0451
 5897SOL    HW118885   6.832   2.954   7.343  0.7050  0.4120  3.8942
 5897SOL    HW218886   6.948   3.052   7.343  1.5026 -0.3175 -0.7998
 5898SOL     OW18887   5.556   5.614   4.366  0.7823 -0.4008  0.2103
 5898SOL    HW118888   5.610   5.685   4.400  1.5758 -0.2385 -1.2901
 5898SOL    HW218889   5.587   5.536   4.412  1.0369 -0.0221  0.6851
 5899SOL     OW18890   5.479   3.200   0.222  0.1664  0.0451  0.4092
 5899SOL    HW118891   5.440   3.287   0.230  0.3159  0.1048  0.4924
 5899SOL    HW218892   5.451   3.169   0.136 -0.4863 -0.1188  0.6738
 5900SOL     OW18893   7.450   0.631   6.869  0.0721  0.4855 -0.0891
 5900SOL    HW118894   7.526   0.584   6.903 -0.9577 -0.3800  1.1405
 5900SOL    HW218895   7.375   0.590   6.914 -1.1012  1.3945 -1.1549
 5901SOL     OW18896   5.151   8.126   6.296  0.0477 -0.3989 -0.0798
 5901SOL    HW118897   5.165   8.032   6.304  1.6160 -0.2839 -1.1484
 5901SOL    HW218898   5.073   8.143   6.350 -0.4257 -2.3306 -0.0861
 5902SOL     OW18899   4.372   3.389   7.595 -0.1477 -0.2386 -0.3165
 5902SOL    HW118900   4.318   3.310   7.595 -0.0091 -0.3357 -0.6836
 5902SOL    HW218901   4.376   3.415   7.687 -0.3958 -0.5201 -0.2235
 5903SOL     OW18902   1.464   3.758   3.106  0.2263 -0.7145 -0.2588
 5903SOL    HW118903   1.392   3.695   3.101  0.0757 -0.5082 -0.7621
 5903SOL    HW218904   1.444   3.822   3.038  0.9651 -0.7452 -0.5165
 5904SOL     OW18905   1.512   5.707   7.263  0.0773  0.1296 -0.5076
 5904SOL    HW118906   1.521   5.800   7.286 -1.0124  0.2501 -0.5015
 5904SOL    HW218907   1.581   5.691   7.199 -1.2977  1.6367 -2.4839
 5905SOL     OW18908   0.014   1.304   6.404  0.0829 -0.1757  0.4305
 5905SOL    HW118909  -0.028   1.287   6.319 -1.0789 -0.3122  1.0129
 5905SOL    HW218910  -0.016   1.391   6.428 -0.8453 -0.7395  1.3974
 5906SOL     OW18911   0.342   6.081   5.658 -0.1991  0.1617  0.1432
 5906SOL    HW118912   0.404   6.131   5.606  2.1366 -0.5556  2.0649
 5906SOL    HW218913   0.292   6.146   5.706 -0.7202  0.7382 -1.1388
 5907SOL     OW18914   2.963   8.067   4.994 -0.4812  0.2079 -0.5107
 5907SOL    HW118915   2.892   8.008   5.018 -0.1520  0.1866  0.4416
 5907SOL    HW218916   3.014   8.078   5.074  1.3101 -0.7641 -1.4603
 5908SOL     OW18917   0.283   3.713   3.151  0.1150 -0.5935 -0.2918
 5908SOL    HW118918   0.249   3.764   3.077 -0.7252 -0.6066  0.0739
 5908SOL    HW218919   0.378   3.723   3.146 -0.0444  2.0966  0.5285
 5909SOL     OW18920   0.307   2.712   2.785  0.1452 -0.3178 -0.2559
 5909SOL    HW118921   0.300   2.617   2.792 -1.2121 -0.2954 -0.9820
 5909SOL    HW218922   0.229   2.738   2.737  0.5711  1.1592 -0.1876
 5910SOL     OW18923   5.672   5.482   5.079 -0.1879  0.5609 -0.1353
 5910SOL    HW118924   5.702   5.497   5.169  0.3324  1.4548 -0.4433
 5910SOL    HW218925   5.648   5.389   5.077 -0.0661  0.4964  0.8837
 5911SOL     OW18926   1.981   3.104   5.682 -0.7356  0.4762 -0.2746
 5911SOL    HW118927   1.955   3.058   5.763  0.0518 -0.7858 -0.7075
 5911SOL    HW218928   2.009   3.034   5.623  1.9518  1.5871 -0.4623
 5912SOL     OW18929   1.515   3.892   2.507 -0.0975 -0.0685  0.8088
 5912SOL    HW118930   1.467   3.944   2.442  0.7163 -1.0296 -0.6145
 5912SOL    HW218931   1.558   3.957   2.563 -2.1238  0.7980  1.4565
 5913SOL     OW18932   0.741   2.130   4.777 -0.1400 -0.0917 -0.2107
 5913SOL    HW118933   0.780   2.101   4.695  0.1278 -0.3572  0.0090
 5913SOL    HW218934   0.651   2.154   4.754 -0.0222 -0.0252 -0.6081
 5914SOL     OW18935   3.064   0.826   7.583  0.6510 -0.1480 -0.2147
 5914SOL    HW118936   3.047   0.735   7.557  0.4825  0.0683 -0.8807
 5914SOL    HW218937   2.977   0.865   7.591  0.7188 -0.0877  0.2289
 5915SOL     OW18938   0.122   0.503   2.103 -0.0275 -0.1893  0.2278
 5915SOL    HW118939   0.188   0.442   2.069 -0.0185  1.0710 -2.2543
 5915SOL    HW218940   0.061   0.515   2.030  1.0435  4.2084 -0.2315
 5916SOL     OW18941   4.940   4.270   7.048  0.2804 -0.7426  0.0435
 5916SOL    HW118942   4.874   4.261   7.118  1.2355  1.0493  1.2634
 5916SOL    HW218943   4.983   4.185   7.045 -1.8814 -1.8684 -0.5961
 5917SOL     OW18944   0.373   0.191   7.572 -0.2450  0.3001  0.3212
 5917SOL    HW118945   0.440   0.193   7.641 -0.3411 -1.0723  0.4659
 5917SOL    HW218946   0.314   0.121   7.597 -0.5782  0.1211 -0.8991
 5918SOL     OW18947   2.706   0.443   0.642  0.0620  0.1353 -0.4446
 5918SOL    HW118948   2.637   0.422   0.704  1.7529  0.1465  1.5579
 5918SOL    HW218949   2.728   0.535   0.660  0.8251  0.0310 -0.7912
 5919SOL     OW18950   6.609   4.584   8.549 -0.0058  0.0524 -0.4092
 5919SOL    HW118951   6.676   4.517   8.559  0.1698  0.1751 -0.7591
 5919SOL    HW218952   6.598   4.621   8.636  1.0721  0.6999 -0.5411
 5920SOL     OW18953   5.478   5.683   5.304 -0.2570 -0.3421  0.0296
 5920SOL    HW118954   5.571   5.671   5.284 -0.0277  1.8091 -0.4928
 5920SOL    HW218955   5.477   5.753   5.369 -1.5384  0.9707 -1.3147
 5921SOL     OW18956   2.013   6.268   7.612 -0.4004  0.0248 -0.8117
 5921SOL    HW118957   1.973   6.283   7.698 -0.4845 -1.2560 -0.6125
 5921SOL    HW218958   1.972   6.333   7.555  0.7938  1.9633  0.4221
 5922SOL     OW18959   4.705   6.688   1.912 -0.1887  0.3691  0.3938
 5922SOL    HW118960   4.695   6.760   1.850  0.3624  0.9548  0.9609
 5922SOL    HW218961   4.740   6.615   1.860 -0.9299  0.4498 -0.2201
 5923SOL     OW18962   0.812   6.715   5.008 -0.4772  0.3159  0.2046
 5923SOL    HW118963   0.724   6.699   5.043  0.0187  0.0983  1.4005
 5923SOL    HW218964   0.803   6.701   4.914 -1.3707 -1.3106  0.4966
 5924SOL     OW18965   4.140   5.409   5.974  0.2887  0.4907 -0.4441
 5924SOL    HW118966   4.158   5.410   6.068 -0.1021  1.8368 -0.3702
 5924SOL    HW218967   4.225   5.426   5.934  0.3330  0.5537 -0.3223
 5925SOL     OW18968   7.455   4.309   1.109 -0.7428  0.1109  0.4418
 5925SOL    HW118969   7.391   4.364   1.064  0.1371  0.4180 -0.4656
 5925SOL    HW218970   7.456   4.342   1.199 -1.6739  0.2583  0.4004
 5926SOL     OW18971   5.523   0.600   6.380  0.0670  0.3144  0.3669
 5926SOL    HW118972   5.430   0.581   6.371  0.1152  0.0975  0.3417
 5926SOL    HW218973   5.540   0.668   6.314  0.0460 -0.0351  0.0003
 5927SOL     OW18974   2.750   4.560   6.790 -0.2936 -0.4776  0.1767
 5927SOL    HW118975   2.793   4.644   6.772 -0.0158 -0.8103 -0.8228
 5927SOL    HW218976   2.806   4.495   6.747  1.1770 -1.5739  3.4110
 5928SOL     OW18977   6.343   5.078   5.263 -0.2880 -0.8339 -0.1982
 5928SOL    HW118978   6.373   4.987   5.259 -0.7269 -1.0248  0.5615
 5928SOL    HW218979   6.354   5.102   5.355  3.4741  1.1667 -0.9861
 5929SOL     OW18980   7.728   4.499   1.207  0.4538  0.0258 -0.0488
 5929SOL    HW118981   7.653   4.538   1.161  0.8323 -0.0418 -0.7488
 5929SOL    HW218982   7.715   4.521   1.299 -1.3695 -1.4905  0.1153
 5930SOL     OW18983   3.954   2.061   7.835 -0.5597 -0.3141 -0.0955
 5930SOL    HW118984   3.989   2.009   7.907  1.0020  1.6922  0.7053
 5930SOL    HW218985   4.031   2.086   7.784 -1.4260 -0.0510 -1.3076
 5931SOL     OW18986   8.576   1.025   8.366 -0.0698 -0.4325 -0.4137
 5931SOL    HW118987   8.577   0.964   8.440  0.6144 -0.6343 -0.5817
 5931SOL    HW218988   8.667   1.053   8.356 -0.3643  0.5990 -0.3612
 5932SOL     OW18989   1.527   6.842   1.390 -0.2701 -0.0301  0.0725
 5932SOL    HW118990   1.514   6.896   1.469 -1.0258 -1.0689  0.6807
 5932SOL    HW218991   1.482   6.890   1.321 -3.2195 -1.0409  1.1196
 5933SOL     OW18992   3.873   0.147   6.098 -0.1350  0.2709  0.6705
 5933SOL    HW118993   3.906   0.069   6.052 -1.9595 -0.9358  1.3068
 5933SOL    HW218994   3.899   0.220   6.042  1.1496 -0.8278 -0.2366
 5934SOL     OW18995   4.598   6.150   3.345  0.0865  0.0049 -0.2137
 5934SOL    HW118996   4.531   6.094   3.385  2.7335 -1.7673  2.1800
 5934SOL    HW218997   4.556   6.235   3.336 -2.0111 -0.5450  2.7980
 5935SOL     OW18998   5.062   3.248   7.814 -0.0282  0.3122  0.9754
 5935SOL    HW118999   4.969   3.226   7.807  0.3699 -0.7962 -2.1747
 5935SOL    HW219000   5.107   3.176   7.771  2.1751  1.8622  0.5195
 5936SOL     OW19001   0.934   7.059   2.958  0.4846 -0.4144 -0.1454
 5936SOL    HW119002   0.846   7.044   2.993  0.5137  0.7795  0.5046
 5936SOL    HW219003   0.964   7.138   3.002  2.1441 -1.1388  0.1076
 5937SOL     OW19004   0.826   5.214   6.327  0.2635 -0.1627  0.1664
 5937SOL    HW119005   0.782   5.152   6.385 -1.1808 -0.9183 -1.6438
 5937SOL    HW219006   0.917   5.215   6.358 -0.6019  0.1339  2.9185
 5938SOL     OW19007   4.325   0.904   5.181 -0.6895  0.0128  0.1613
 5938SOL    HW119008   4.372   0.948   5.110 -0.5751  0.2787  0.4002
 5938SOL    HW219009   4.246   0.870   5.140 -0.9786  0.7956  0.0546
 5939SOL     OW19010   2.771   4.629   5.160 -0.0498  0.0986  0.0300
 5939SOL    HW119011   2.731   4.716   5.165  1.4399  0.7716  0.9203
 5939SOL    HW219012   2.791   4.606   5.250 -0.8351 -1.4092 -0.1378
 5940SOL     OW19013   2.860   4.359   4.489 -0.0564 -0.0835  0.6341
 5940SOL    HW119014   2.878   4.370   4.582 -0.3690 -0.3588  0.7315
 5940SOL    HW219015   2.848   4.449   4.456 -0.0394  0.0089  0.8775
 5941SOL     OW19016   2.599   2.813   0.329  0.2425 -0.1661 -0.4321
 5941SOL    HW119017   2.628   2.722   0.341  2.0204  0.5531  1.2433
 5941SOL    HW219018   2.677   2.859   0.298 -0.4136  0.9467 -0.4647
 5942SOL     OW19019   3.772   6.482   6.996 -0.4649 -0.3254 -0.4785
 5942SOL    HW119020   3.809   6.524   7.073 -2.9901 -0.7031  1.0742
 5942SOL    HW219021   3.773   6.388   7.017  0.2388 -0.5927 -1.6090
 5943SOL     OW19022   1.963   3.687   3.018  0.4320  0.1575  0.5965
 5943SOL    HW119023   1.878   3.705   3.058 -0.7967  0.0799 -1.7990
 5943SOL    HW219024   2.016   3.765   3.038 -0.8656  1.1130  0.4341
 5944SOL     OW19025   3.466   1.619   5.477  0.0485 -0.2709 -0.2843
 5944SOL    HW119026   3.461   1.714   5.486  0.6251 -0.3713  1.5736
 5944SOL    HW219027   3.406   1.599   5.405 -1.1918  1.3719  0.2095
 5945SOL     OW19028   1.951   0.924   5.550 -0.0635  0.0786  0.1671
 5945SOL    HW119029   1.912   1.011   5.558  0.7670  0.8699 -2.9965
 5945SOL    HW219030   2.043   0.937   5.573 -0.0910 -0.1723  0.4362
 5946SOL     OW19031   8.256   1.219   8.123  0.0161 -0.0655  0.2263
 5946SOL    HW119032   8.222   1.280   8.189  0.1576 -0.0993  0.3289
 5946SOL    HW219033   8.183   1.159   8.106 -0.6794  1.0601 -1.0094
 5947SOL     OW19034   7.537   6.198   8.196 -0.3688 -0.0630 -0.1934
 5947SOL    HW119035   7.524   6.289   8.225 -0.4461 -0.0395 -0.2994
 5947SOL    HW219036   7.620   6.200   8.149 -0.9529  0.2179 -1.2527
 5948SOL     OW19037   0.973   4.732   1.048  0.4908 -0.0296  0.6908
 5948SOL    HW119038   0.989   4.819   1.010 -0.9890  0.0896  0.2787
 5948SOL    HW219039   0.988   4.671   0.976 -0.9151  0.0953  0.2535
 5949SOL     OW19040   6.479   5.747   5.793 -0.2544  0.0069  0.6885
 5949SOL    HW119041   6.509   5.692   5.866 -0.4932 -0.6276  0.3134
 5949SOL    HW219042   6.510   5.835   5.815 -1.1249  0.0098  2.0304
 5950SOL     OW19043   1.623   3.671   8.075  0.3764  0.1845 -0.2488
 5950SOL    HW119044   1.607   3.751   8.125  3.6066  1.7184 -1.3676
 5950SOL    HW219045   1.718   3.660   8.079  0.1181 -3.2294 -0.7845
 5951SOL     OW19046   5.365   0.843   1.255 -0.2769  0.0123 -0.4155
 5951SOL    HW119047   5.414   0.799   1.324 -0.3396 -1.7604 -1.4379
 5951SOL    HW219048   5.288   0.788   1.241 -0.6951  0.7913 -1.3113
 5952SOL     OW19049   2.255   5.902   0.139  0.3426  0.0998  0.4665
 5952SOL    HW119050   2.339   5.949   0.148  0.2415  0.1825  1.0150
 5952SOL    HW219051   2.250   5.848   0.217  0.3800 -0.7191 -0.0846
 5953SOL     OW19052   1.251   3.747   7.443 -0.3017  0.2855 -0.2205
 5953SOL    HW119053   1.346   3.739   7.451 -0.3328  1.4314  2.1243
 5953SOL    HW219054   1.231   3.831   7.484 -2.5151 -0.8974  1.3091
 5954SOL     OW19055   2.169   1.031   2.404  0.1234  0.2790  0.6671
 5954SOL    HW119056   2.080   1.042   2.436 -0.6218 -0.0783 -1.1532
 5954SOL    HW219057   2.205   0.959   2.455 -0.3576  0.8908  1.9082
 5955SOL     OW19058   5.915   7.987   1.705  0.5255  0.2094 -0.6447
 5955SOL    HW119059   5.854   8.060   1.699 -0.2355 -0.4865 -2.1690
 5955SOL    HW219060   5.863   7.916   1.743  0.4733 -0.2534 -1.5346
 5956SOL     OW19061   0.905   3.534   5.764  0.3875 -0.2674 -0.0769
 5956SOL    HW119062   0.923   3.486   5.846  0.0374  0.7999  0.6385
 5956SOL    HW219063   0.909   3.626   5.789  1.4415  0.1059 -1.5277
 5957SOL     OW19064   7.170   1.080   5.047 -0.0717  0.0755 -0.0305
 5957SOL    HW119065   7.227   1.025   4.993  0.4704  0.3323  0.2696
 5957SOL    HW219066   7.227   1.151   5.077 -0.6539  0.5604 -0.0535
 5958SOL     OW19067   0.060   5.806   5.859  0.2280 -0.3496 -0.2475
 5958SOL    HW119068   0.153   5.829   5.851  0.1197  0.3795  0.4414
 5958SOL    HW219069   0.024   5.821   5.772  0.5546  0.3414 -0.2753
 5959SOL     OW19070   1.575   4.903   1.528 -0.1451 -0.1373  0.5178
 5959SOL    HW119071   1.645   4.965   1.549  0.2314 -0.4894  0.3177
 5959SOL    HW219072   1.568   4.849   1.607 -0.4354  0.1243  0.6714
 5960SOL     OW19073   8.418   7.126   5.238 -0.0670 -0.3956  0.1468
 5960SOL    HW119074   8.372   7.058   5.189  0.7068 -0.5176 -0.4297
 5960SOL    HW219075   8.433   7.088   5.325 -0.0335 -0.7821 -0.0291
 5961SOL     OW19076   7.536   0.555   6.131 -0.1977  0.1146 -0.0019
 5961SOL    HW119077   7.615   0.604   6.152  0.1189 -0.4278  0.0873
 5961SOL    HW219078   7.553   0.467   6.163 -0.3794 -0.3025 -1.0026
 5962SOL     OW19079   3.151   2.550   5.483  0.0774  0.1670  0.5242
 5962SOL    HW119080   3.126   2.626   5.430 -1.5441 -0.4308  0.3890
 5962SOL    HW219081   3.113   2.567   5.569 -0.2408 -0.4507  0.5137
 5963SOL     OW19082   3.923   6.468   3.559  0.2690  0.1300 -0.2524
 5963SOL    HW119083   3.988   6.419   3.610 -0.8108 -0.9851  0.1022
 5963SOL    HW219084   3.967   6.551   3.538  1.4297 -0.1627  0.8580
 5964SOL     OW19085   8.453   7.691   0.154 -0.2016 -0.4289  0.7110
 5964SOL    HW119086   8.398   7.768   0.135  1.3935  0.9653  1.4878
 5964SOL    HW219087   8.541   7.717   0.126  0.5736 -1.5512  2.0087
 5965SOL     OW19088   2.284   8.219   6.284  0.0579 -0.0251 -0.1937
 5965SOL    HW119089   2.256   8.129   6.270 -1.6288  0.4140  0.1108
 5965SOL    HW219090   2.303   8.252   6.196  0.6329 -0.6601 -0.3089
 5966SOL     OW19091   3.619   4.292   7.471  0.4661  0.1667 -0.5461
 5966SOL    HW119092   3.546   4.243   7.434 -1.0003  0.1790  2.1315
 5966SOL    HW219093   3.692   4.229   7.472 -0.0759 -0.4972 -1.3165
 5967SOL     OW19094   1.923   0.149   2.357 -0.1458 -0.3202 -0.0849
 5967SOL    HW119095   2.010   0.176   2.325  0.4190 -0.9540  0.8656
 5967SOL    HW219096   1.862   0.200   2.304  0.8343  1.1238  0.1034
 5968SOL     OW19097   5.809   6.482   1.176 -0.3706 -0.5377  0.7606
 5968SOL    HW119098   5.788   6.412   1.114 -1.3684 -0.6346  1.1931
 5968SOL    HW219099   5.782   6.448   1.261  1.2347 -0.5136  1.3242
 5969SOL     OW19100   6.820   7.147   5.181  0.0938 -0.7395  0.6000
 5969SOL    HW119101   6.798   7.221   5.237 -1.4906 -1.3278  0.7847
 5969SOL    HW219102   6.834   7.186   5.094  1.1925 -0.0048  1.0849
 5970SOL     OW19103   7.559   8.006   1.394 -0.5862 -0.4846  0.4562
 5970SOL    HW119104   7.534   8.092   1.428 -1.6707 -0.3113 -0.6977
 5970SOL    HW219105   7.646   8.019   1.357 -1.2704  0.4749 -0.8741
 5971SOL     OW19106   7.666   2.755   1.808 -0.5750  0.0095  0.0577
 5971SOL    HW119107   7.665   2.660   1.819 -1.4991  0.0218  0.1545
 5971SOL    HW219108   7.685   2.768   1.716 -0.1973 -0.2648  0.0947
 5972SOL     OW19109   5.820   7.894   0.551  0.2201  0.4972 -0.0186
 5972SOL    HW119110   5.837   7.984   0.526  0.8905  0.5987  0.7310
 5972SOL    HW219111   5.725   7.886   0.551  0.1617  1.1621 -0.2407
 5973SOL     OW19112   8.152   3.968   7.251 -0.1045  0.1564  0.4655
 5973SOL    HW119113   8.120   3.891   7.298  1.1767 -0.9013 -0.3107
 5973SOL    HW219114   8.209   4.013   7.314  0.8666 -0.7466  0.2589
 5974SOL     OW19115   6.695   0.136   7.801 -0.1372 -0.4727 -0.3287
 5974SOL    HW119116   6.678   0.224   7.834  2.1672 -0.4988  1.1943
 5974SOL    HW219117   6.725   0.149   7.711 -0.4604  0.2324 -0.3386
 5975SOL     OW19118   2.714   1.572   0.708 -0.7650 -0.6985 -0.9820
 5975SOL    HW119119   2.740   1.664   0.709  0.4417 -0.9203  2.2876
 5975SOL    HW219120   2.780   1.529   0.654  1.0045 -0.0955  0.5837
 5976SOL     OW19121   2.291   3.369   3.480  0.0087  0.3165  0.7570
 5976SOL    HW119122   2.288   3.367   3.576  1.3405  0.7269  0.8247
 5976SOL    HW219123   2.269   3.459   3.457 -3.4657 -0.4833  0.4785
 5977SOL     OW19124   2.721   4.941   7.628  0.1191 -0.3945  0.6874
 5977SOL    HW119125   2.700   4.850   7.648 -2.0291 -0.0111  0.4324
 5977SOL    HW219126   2.762   4.975   7.708 -0.5363 -1.1536  1.3597
 5978SOL     OW19127   6.332   7.931   6.516 -0.1195 -0.4920 -0.2676
 5978SOL    HW119128   6.264   7.961   6.577  0.2241  0.2724 -0.2506
 5978SOL    HW219129   6.399   7.999   6.520  0.0944 -0.6365 -1.1875
 5979SOL     OW19130   2.184   5.494   2.393 -0.0645 -0.0544  0.1780
 5979SOL    HW119131   2.201   5.549   2.469 -1.4524  0.6838 -0.0165
 5979SOL    HW219132   2.164   5.555   2.323 -0.7862 -0.7714 -0.2630
 5980SOL     OW19133   1.896   3.608   8.074 -0.1976 -0.0324 -0.5463
 5980SOL    HW119134   1.949   3.591   7.996 -0.0208  2.0511 -0.9454
 5980SOL    HW219135   1.940   3.560   8.144  0.7134 -0.4431 -1.3758
 5981SOL     OW19136   4.410   0.962   6.396  0.0686 -0.4111  0.2022
 5981SOL    HW119137   4.494   1.006   6.410  0.1883 -0.1633 -1.1281
 5981SOL    HW219138   4.351   1.031   6.368 -0.6461 -0.5605  1.2590
 5982SOL     OW19139   8.231   3.951   6.208 -0.3850  0.2350  0.3654
 5982SOL    HW119140   8.194   3.987   6.128 -0.9943 -0.3753  0.3688
 5982SOL    HW219141   8.309   3.904   6.180  0.5827  1.7408  0.3901
 5983SOL     OW19142   6.510   0.330   1.211 -0.0106 -0.7296  0.5762
 5983SOL    HW119143   6.511   0.396   1.281  1.2444 -0.6271  0.4915
 5983SOL    HW219144   6.566   0.367   1.143 -0.2619 -1.3565  0.0248
 5984SOL     OW19145   4.310   7.301   3.110 -0.1499 -0.3845  0.1659
 5984SOL    HW119146   4.310   7.322   3.016  1.2304 -0.2014  0.1983
 5984SOL    HW219147   4.218   7.312   3.136 -0.2180  1.5700 -0.7128
 5985SOL     OW19148   2.562   8.113   7.625 -0.0462  0.2058 -0.5834
 5985SOL    HW119149   2.477   8.073   7.606 -0.4346  0.3876  0.7217
 5985SOL    HW219150   2.583   8.084   7.713  0.8682  0.8437 -0.5806
 5986SOL     OW19151   7.409   6.347   1.112  0.1539  0.0076 -0.1952
 5986SOL    HW119152   7.460   6.332   1.032  0.3399  1.4061 -0.3549
 5986SOL    HW219153   7.382   6.438   1.107 -2.8249 -0.7884 -0.3547
 5987SOL     OW19154   1.609   5.221   0.637 -0.0302  0.1104 -0.1128
 5987SOL    HW119155   1.567   5.190   0.717  1.3399 -0.5955  0.3551
 5987SOL    HW219156   1.628   5.313   0.654 -0.0770  0.0578  0.2315
 5988SOL     OW19157   2.045   3.808   6.240  0.0603  0.0491 -0.1505
 5988SOL    HW119158   2.059   3.903   6.235  2.2760 -0.2634 -0.9337
 5988SOL    HW219159   2.066   3.786   6.331 -1.3884  0.4045  0.2938
 5989SOL     OW19160   6.488   0.168   3.480 -0.5394 -0.1332  0.2525
 5989SOL    HW119161   6.442   0.252   3.479  0.9823  0.7846  1.8017
 5989SOL    HW219162   6.430   0.110   3.529 -0.4429  0.7943  1.5233
 5990SOL     OW19163   8.496   3.884   6.149  0.2918 -0.0597 -0.2220
 5990SOL    HW119164   8.525   3.971   6.121  1.3268 -0.6558 -1.0674
 5990SOL    HW219165   8.526   3.877   6.240 -0.0885  0.5838 -0.0388
 5991SOL     OW19166   3.953   6.235   1.465 -0.2614  0.6574 -0.4330
 5991SOL    HW119167   3.910   6.320   1.468 -0.4639  0.6094 -1.5281
 5991SOL    HW219168   4.004   6.237   1.383 -0.6748 -0.4567 -0.7351
 5992SOL     OW19169   5.273   7.729   5.484  0.4535  0.0300 -0.1608
 5992SOL    HW119170   5.289   7.703   5.575  0.6747  0.0528 -0.1935
 5992SOL    HW219171   5.178   7.743   5.480  0.2882 -0.9959 -0.2035
 5993SOL     OW19172   0.189   6.789   6.800 -0.0026  0.5122  0.1371
 5993SOL    HW119173   0.285   6.786   6.805 -0.0581  0.2121  1.8048
 5993SOL    HW219174   0.167   6.733   6.726  1.1295  1.2009 -0.7637
 5994SOL     OW19175   5.582   5.993   7.392  0.0716  0.2588  0.5191
 5994SOL    HW119176   5.657   6.028   7.344 -0.8405 -0.0378 -1.2115
 5994SOL    HW219177   5.508   6.009   7.335 -0.5903 -3.4003  0.1246
 5995SOL     OW19178   3.850   5.120   2.082 -0.5913  0.1115 -0.1983
 5995SOL    HW119179   3.849   5.082   2.171 -1.0612 -0.6827 -0.5267
 5995SOL    HW219180   3.926   5.080   2.040  0.7368  1.8730  0.3924
 5996SOL     OW19181   1.463   3.259   5.017 -0.3951 -0.3194  0.3192
 5996SOL    HW119182   1.471   3.347   4.980  0.5226 -0.5161  0.0150
 5996SOL    HW219183   1.384   3.262   5.070 -2.3550 -0.2885 -2.4024
 5997SOL     OW19184   5.199   7.650   7.110 -0.4307 -0.2715 -0.5389
 5997SOL    HW119185   5.295   7.656   7.118 -0.4167 -1.3316  0.3156
 5997SOL    HW219186   5.167   7.656   7.200 -1.1328 -0.4324 -0.7710
 5998SOL     OW19187   1.600   4.413   5.064  0.0284  0.4544 -0.1696
 5998SOL    HW119188   1.591   4.346   4.996 -2.6060 -0.6166  1.0765
 5998SOL    HW219189   1.514   4.455   5.067  0.8836  2.2356  0.7745
 5999SOL     OW19190   3.385   8.255   2.382  0.1191 -0.2809 -0.3391
 5999SOL    HW119191   3.429   8.178   2.416  2.8871  0.4163 -2.0029
 5999SOL    HW219192   3.429   8.329   2.424  0.4197  0.4423 -1.8261
 6000SOL     OW19193   6.804   0.210   4.571  0.0247 -0.5796  0.9204
 6000SOL    HW119194   6.749   0.239   4.643 -3.0384 -1.6198 -0.8260
 6000SOL    HW219195   6.807   0.115   4.580  1.4243 -0.5750  0.8196
 6001SOL     OW19196   4.935   4.044   6.795 -0.2134  0.5396 -0.4799
 6001SOL    HW119197   4.975   4.029   6.881 -2.3438  0.8764  0.6308
 6001SOL    HW219198   4.893   4.129   6.803  0.7661  1.2576 -2.3892
 6002SOL     OW19199   2.533   2.335   6.234 -0.4788  0.1701 -0.3488
 6002SOL    HW119200   2.481   2.415   6.231  0.9306  1.0790 -1.2698
 6002SOL    HW219201   2.620   2.361   6.206  0.4056 -1.4098  0.7595
 6003SOL     OW19202   3.113   7.512   8.099 -0.2904  0.1955  0.2967
 6003SOL    HW119203   3.148   7.470   8.020  2.2472  0.9723  0.9239
 6003SOL    HW219204   3.074   7.593   8.067  1.6460  1.0109 -0.0958
 6004SOL     OW19205   7.165   0.501   5.160  0.3198  0.5730 -0.0738
 6004SOL    HW119206   7.231   0.489   5.228 -0.2360 -0.3037  0.3260
 6004SOL    HW219207   7.125   0.586   5.181  0.2101  0.3494  0.6429
 6005SOL     OW19208   0.827   0.243   2.126  0.4422 -0.5708  0.2869
 6005SOL    HW119209   0.886   0.173   2.155  2.2722  0.1994 -1.3967
 6005SOL    HW219210   0.836   0.311   2.193  0.8278 -0.8044  0.4762
 6006SOL     OW19211   4.806   6.235   6.663  0.2868  0.2274  0.1699
 6006SOL    HW119212   4.745   6.213   6.733  1.4434  1.2239  1.5533
 6006SOL    HW219213   4.788   6.171   6.594  0.7277 -2.3623  2.2994
 6007SOL     OW19214   0.798   6.852   1.907  0.3523 -0.4104 -0.2329
 6007SOL    HW119215   0.775   6.903   1.985  2.1529 -0.1954  0.1915
 6007SOL    HW219216   0.799   6.761   1.937 -0.8886 -0.5344 -0.5094
 6008SOL     OW19217   2.876   1.750   3.340  0.0657 -0.6348 -0.4989
 6008SOL    HW119218   2.833   1.833   3.358  2.0386  0.3054  0.1326
 6008SOL    HW219219   2.856   1.732   3.248 -1.8442 -0.4052 -0.1693
 6009SOL     OW19220   1.911   7.856   7.628 -0.2103 -0.3687 -0.2325
 6009SOL    HW119221   1.954   7.907   7.559 -1.0502  2.1448  0.9690
 6009SOL    HW219222   1.961   7.877   7.708 -4.2885  4.1412  1.6140
 6010SOL     OW19223   3.226   3.254   2.630 -0.8863  0.0182  0.4027
 6010SOL    HW119224   3.188   3.178   2.587  1.9136 -2.1259  1.4419
 6010SOL    HW219225   3.204   3.244   2.722 -2.2366  1.6612  0.3140
 6011SOL     OW19226   0.925   3.508   0.096 -0.1070 -0.4001 -0.3593
 6011SOL    HW119227   0.921   3.604   0.094 -1.3940 -0.4388 -2.0752
 6011SOL    HW219228   0.843   3.481   0.139 -0.6196 -0.7319 -1.5065
 6012SOL     OW19229   2.768   1.979   5.045 -0.2203  0.2104 -0.4639
 6012SOL    HW119230   2.829   1.913   5.076 -0.0201  0.6497  0.0971
 6012SOL    HW219231   2.772   2.049   5.111 -0.0302  1.0111 -1.2969
 6013SOL     OW19232   1.613   3.682   3.786 -0.2057 -0.1267  0.0931
 6013SOL    HW119233   1.635   3.758   3.839  0.4763 -0.3351  0.1119
 6013SOL    HW219234   1.583   3.616   3.849  0.6788 -0.4009  0.2389
 6014SOL     OW19235   7.760   1.652   5.554 -0.3603 -0.2240 -0.0447
 6014SOL    HW119236   7.824   1.713   5.518 -0.3833 -0.6533 -0.8394
 6014SOL    HW219237   7.810   1.596   5.613  0.5027 -1.9628 -2.2635
 6015SOL     OW19238   5.964   3.276   0.237 -0.7348  0.4844 -0.2619
 6015SOL    HW119239   6.021   3.316   0.171  0.1397 -0.9899 -0.4497
 6015SOL    HW219240   5.999   3.187   0.248 -0.0432  1.0133  3.0637
 6016SOL     OW19241   1.547   7.890   3.855  0.0495  0.3429  0.4438
 6016SOL    HW119242   1.561   7.801   3.823  1.1209  1.1695 -1.6101
 6016SOL    HW219243   1.453   7.895   3.873 -0.7582 -0.2284 -2.8730
 6017SOL     OW19244   8.339   3.681   6.025  0.8075  0.1565 -0.0182
 6017SOL    HW119245   8.397   3.750   6.056  0.9900  0.5017 -1.0977
 6017SOL    HW219246   8.394   3.627   5.968  0.5029 -0.5319  0.3195
 6018SOL     OW19247   8.158   7.412   3.830 -0.2695 -0.0728  0.2528
 6018SOL    HW119248   8.146   7.424   3.736  1.0134  0.9794  0.1950
 6018SOL    HW219249   8.136   7.497   3.868 -1.0271 -0.5632  0.9473
 6019SOL     OW19250   4.329   4.102   7.829 -0.0517 -0.6671 -0.2553
 6019SOL    HW119251   4.254   4.122   7.885  0.7557  0.2098  0.5585
 6019SOL    HW219252   4.303   4.024   7.780 -1.2312 -0.7621  0.4951
 6020SOL     OW19253   7.339   2.288   1.690  0.5542 -0.2072  0.2408
 6020SOL    HW119254   7.429   2.289   1.722  0.3552  1.8741  0.8956
 6020SOL    HW219255   7.342   2.337   1.608 -0.0033  0.0264  0.3571
 6021SOL     OW19256   5.837   3.861   3.773  0.8818  0.2063 -0.7662
 6021SOL    HW119257   5.744   3.855   3.794  0.7866  0.2859 -1.1453
 6021SOL    HW219258   5.867   3.939   3.818  1.1372 -0.6923  0.6649
 6022SOL     OW19259   5.887   4.505   4.863  0.3868  0.4673 -0.9241
 6022SOL    HW119260   5.817   4.471   4.808 -0.4876  0.5382  0.1048
 6022SOL    HW219261   5.868   4.470   4.950  1.7390  0.3418 -0.6578
 6023SOL     OW19262   3.645   2.046   6.989 -0.2553 -0.9634  0.6655
 6023SOL    HW119263   3.720   2.088   6.948  1.9871 -2.1449  3.2233
 6023SOL    HW219264   3.607   2.113   7.046  0.2842 -0.9677  1.0425
 6024SOL     OW19265   2.214   4.705   5.637  0.1516  0.4832  0.6339
 6024SOL    HW119266   2.246   4.698   5.727  0.2811  0.8696  0.6226
 6024SOL    HW219267   2.179   4.794   5.631 -0.0153  0.4011  0.3529
 6025SOL     OW19268   3.141   3.816   4.591  0.0712  0.2681 -0.0748
 6025SOL    HW119269   3.048   3.829   4.609  0.0419 -0.4372  0.3309
 6025SOL    HW219270   3.173   3.765   4.666  0.6618  0.0395 -0.4729
 6026SOL     OW19271   4.235   6.181   2.217  0.2993  0.6470  0.5753
 6026SOL    HW119272   4.322   6.197   2.255 -0.2209  1.1110  1.6013
 6026SOL    HW219273   4.251   6.180   2.122  1.5089  0.2071  0.7578
 6027SOL     OW19274   3.883   5.258   8.229  0.3680  0.3661 -0.1615
 6027SOL    HW119275   3.859   5.167   8.245  3.3346  0.0789  4.8436
 6027SOL    HW219276   3.821   5.308   8.283  1.9762  0.7438  1.4183
 6028SOL     OW19277   4.326   6.432   5.478 -0.3587  0.4565  1.2411
 6028SOL    HW119278   4.281   6.400   5.556  1.5114  0.0898  2.2036
 6028SOL    HW219279   4.345   6.524   5.497  1.3500  0.0006  1.8411
 6029SOL     OW19280   2.330   3.083   2.665 -0.2616 -0.3285 -0.2907
 6029SOL    HW119281   2.265   3.108   2.600 -0.4557 -0.2212 -0.0598
 6029SOL    HW219282   2.302   3.129   2.745  0.7591  0.6785 -0.4821
 6030SOL     OW19283   3.781   4.959   8.229  0.1930 -0.4279  0.4532
 6030SOL    HW119284   3.750   5.021   8.295  1.5659  0.0378  0.6864
 6030SOL    HW219285   3.719   4.968   8.157  0.2987  1.1647  0.5204
 6031SOL     OW19286   1.537   6.307   1.852  0.2622  0.2409  0.2095
 6031SOL    HW119287   1.466   6.279   1.795 -0.7505  0.9212  1.0966
 6031SOL    HW219288   1.591   6.364   1.797 -0.9083  1.1878 -0.0029
 6032SOL     OW19289   4.410   7.653   1.596  0.5920 -0.1985 -0.0922
 6032SOL    HW119290   4.429   7.616   1.510 -0.0770  0.9281 -0.7588
 6032SOL    HW219291   4.430   7.747   1.587  1.6471 -0.2453  1.3473
 6033SOL     OW19292   6.846   5.395   7.949 -0.2467 -0.2277  0.0643
 6033SOL    HW119293   6.861   5.436   8.035  0.4122 -2.3000  1.0055
 6033SOL    HW219294   6.756   5.363   7.953 -1.0117  1.6481 -0.9477
 6034SOL     OW19295   6.490   4.741   3.351 -0.4716  0.2912 -0.4647
 6034SOL    HW119296   6.487   4.837   3.349 -1.7703  0.4620  3.0485
 6034SOL    HW219297   6.525   4.720   3.437 -0.3818 -2.4159 -1.0873
 6035SOL     OW19298   8.499   6.408   8.099 -0.1517  0.0428  0.1743
 6035SOL    HW119299   8.411   6.432   8.128 -0.9703 -2.7244  0.2222
 6035SOL    HW219300   8.507   6.446   8.011 -1.0229  1.0609  0.5138
 6036SOL     OW19301   6.869   1.469   4.439 -0.4138 -0.0098 -0.4716
 6036SOL    HW119302   6.901   1.540   4.495 -0.8921  0.4218 -0.7427
 6036SOL    HW219303   6.784   1.499   4.407 -0.4349 -0.5272 -0.9228
 6037SOL     OW19304   8.085   4.662   5.689 -0.2569 -0.6251  0.1824
 6037SOL    HW119305   8.085   4.567   5.684  2.5733 -0.6534 -1.2320
 6037SOL    HW219306   8.123   4.682   5.774  1.8567 -0.8672 -0.6458
 6038SOL     OW19307   7.595   8.128   7.070 -0.0858 -0.3075  0.4623
 6038SOL    HW119308   7.544   8.117   6.989 -1.6374  0.5077  1.2891
 6038SOL    HW219309   7.600   8.223   7.082  0.8414 -0.4054  0.9049
 6039SOL     OW19310   5.870   2.254   8.586  0.2609  1.3860  0.2283
 6039SOL    HW119311   5.953   2.206   8.588  0.0435  0.9914 -0.0430
 6039SOL    HW219312   5.821   2.220   8.661 -1.2787 -1.3823 -1.8383
 6040SOL     OW19313   1.020   7.145   8.520  0.0250  0.3174 -0.6298
 6040SOL    HW119314   0.986   7.059   8.543 -0.3807  0.9781  1.3983
 6040SOL    HW219315   1.108   7.128   8.487 -0.6568 -1.0019 -1.8855
 6041SOL     OW19316   3.253   0.407   4.427 -0.1340 -0.0650  0.8812
 6041SOL    HW119317   3.338   0.371   4.401 -0.7875 -1.4309  0.5296
 6041SOL    HW219318   3.222   0.347   4.495 -0.5007  0.8503  1.5397
 6042SOL     OW19319   1.229   4.104   0.152 -0.2109  0.3267  0.2388
 6042SOL    HW119320   1.148   4.112   0.203 -0.9974  2.7686 -1.2253
 6042SOL    HW219321   1.269   4.191   0.158  0.1396  0.4206 -2.4381
 6043SOL     OW19322   2.946   8.318   5.417  0.1864 -0.0194 -0.2420
 6043SOL    HW119323   2.868   8.284   5.373  0.3338 -2.8144  1.4598
 6043SOL    HW219324   2.913   8.355   5.499  0.6113 -1.5252  0.6462
 6044SOL     OW19325   0.097   5.467   2.997  0.1098  0.1665  0.1989
 6044SOL    HW119326   0.008   5.440   2.976 -0.0752  0.7584  0.1961
 6044SOL    HW219327   0.086   5.542   3.056  0.5892  1.1270 -0.8857
 6045SOL     OW19328   1.313   6.560   1.816  0.3042  0.5356 -0.4182
 6045SOL    HW119329   1.265   6.633   1.780  0.8285  0.9481 -0.2965
 6045SOL    HW219330   1.393   6.599   1.851  0.1828  0.0380  0.4498
 6046SOL     OW19331   5.505   4.095   3.552  0.4505 -0.1764 -0.4071
 6046SOL    HW119332   5.597   4.120   3.556  0.5561 -0.2481 -1.7835
 6046SOL    HW219333   5.492   4.037   3.627  0.8684  1.8069  1.2740
 6047SOL     OW19334   3.833   8.054   6.302 -0.2840 -0.4760  0.8717
 6047SOL    HW119335   3.920   8.062   6.262 -0.5674  0.4229  0.3952
 6047SOL    HW219336   3.847   8.076   6.394 -0.5906  3.8357  0.1092
 6048SOL     OW19337   4.518   5.844   3.948  0.1265  0.5796 -0.1248
 6048SOL    HW119338   4.440   5.794   3.924 -0.3581  1.4770 -0.4618
 6048SOL    HW219339   4.570   5.849   3.868  0.9633 -0.7279  0.2961
 6049SOL     OW19340   3.251   1.710   4.043  0.3502  0.1765 -0.3717
 6049SOL    HW119341   3.168   1.735   4.083 -0.7490 -1.9772 -1.1726
 6049SOL    HW219342   3.298   1.664   4.112 -0.0560 -0.4905 -0.5361
 6050SOL     OW19343   8.382   0.162   0.841  0.4082  0.2620 -0.5480
 6050SOL    HW119344   8.346   0.188   0.926 -0.7526 -0.2726 -0.8654
 6050SOL    HW219345   8.353   0.231   0.781  2.4053  1.4141 -0.3028
 6051SOL     OW19346   6.615   6.501   0.629  0.0588 -0.4518  0.9850
 6051SOL    HW119347   6.593   6.408   0.635 -0.3577 -0.2808  2.4060
 6051SOL    HW219348   6.536   6.542   0.593  0.5877 -0.7485 -0.5977
 6052SOL     OW19349   8.374   4.764   4.600  0.2787 -0.1506  0.1661
 6052SOL    HW119350   8.351   4.700   4.533  1.1690 -2.3414  1.8483
 6052SOL    HW219351   8.470   4.763   4.603  0.2911  0.8291  0.6638
 6053SOL     OW19352   6.428   2.190   3.404  0.1170 -0.0243 -0.5643
 6053SOL    HW119353   6.398   2.277   3.376  0.3616  0.2328 -0.0419
 6053SOL    HW219354   6.350   2.149   3.441  0.8169  1.6644  3.3467
 6054SOL     OW19355   4.725   6.327   5.992 -0.1038  0.0408 -0.4472
 6054SOL    HW119356   4.648   6.274   5.969  0.2267  0.3360 -2.3470
 6054SOL    HW219357   4.695   6.382   6.064 -1.0427 -1.3269  0.2562
 6055SOL     OW19358   0.613   0.836   3.765  0.4176  0.0690  0.1693
 6055SOL    HW119359   0.699   0.804   3.738  0.6918 -0.2986  1.4091
 6055SOL    HW219360   0.572   0.866   3.684  1.2558 -0.8213 -0.6114
 6056SOL     OW19361   3.885   5.037   0.527 -0.0286 -0.0094  0.1999
 6056SOL    HW119362   3.935   5.078   0.456  0.0899  0.8979  0.8064
 6056SOL    HW219363   3.927   4.952   0.539 -0.4367 -0.4494 -1.2369
 6057SOL     OW19364   5.736   4.048   0.874 -0.1854 -0.4305 -0.0974
 6057SOL    HW119365   5.810   3.994   0.846  0.7669  0.9098 -0.2530
 6057SOL    HW219366   5.753   4.134   0.836 -1.7120 -0.0374  0.0693
 6058SOL     OW19367   7.056   5.482   5.395  0.7074  0.2332  0.2039
 6058SOL    HW119368   7.047   5.519   5.307 -0.8956  2.1641  1.0930
 6058SOL    HW219369   7.068   5.389   5.381 -0.8693  0.2961 -2.0482
 6059SOL     OW19370   7.172   7.111   0.209  0.3993  0.4001  0.2504
 6059SOL    HW119371   7.113   7.061   0.265  0.2159 -0.9221 -1.0801
 6059SOL    HW219372   7.215   7.173   0.269 -1.0431  0.2082  1.5324
 6060SOL     OW19373   1.818   4.309   5.797 -0.8920 -0.2220 -0.4545
 6060SOL    HW119374   1.834   4.232   5.743  1.0741  0.4285 -0.8754
 6060SOL    HW219375   1.815   4.275   5.887  2.1043 -0.6209 -0.4162
 6061SOL     OW19376   7.552   3.856   0.881  0.1080  0.1870  0.1377
 6061SOL    HW119377   7.527   3.832   0.970 -1.1806  0.3173 -0.1665
 6061SOL    HW219378   7.646   3.872   0.886  0.1047 -0.0683  1.4133
 6062SOL     OW19379   5.477   4.140   5.037 -0.8808 -0.0353 -0.0723
 6062SOL    HW119380   5.427   4.177   5.109 -0.4543  2.7268 -1.0787
 6062SOL    HW219381   5.417   4.139   4.963 -0.0316  1.6773 -0.8438
 6063SOL     OW19382   1.080   1.451   5.629 -0.3030 -0.0123  0.2004
 6063SOL    HW119383   1.156   1.448   5.570 -1.1196 -1.4158 -0.8460
 6063SOL    HW219384   1.059   1.544   5.635  0.3862  0.2448 -0.9729
 6064SOL     OW19385   5.814   2.150   4.491  0.2869  0.0090 -0.2353
 6064SOL    HW119386   5.877   2.102   4.545  0.5864  1.0916  0.3978
 6064SOL    HW219387   5.860   2.230   4.465  0.3253 -0.6789 -2.5105
 6065SOL     OW19388   0.855   5.525   4.137  0.5085 -0.6173 -0.4052
 6065SOL    HW119389   0.805   5.527   4.218  1.4232 -1.1473  0.1985
 6065SOL    HW219390   0.791   5.540   4.068 -0.0590  1.4903  0.5002
 6066SOL     OW19391   8.179   8.260   1.881 -0.9272  0.1482 -0.3649
 6066SOL    HW119392   8.247   8.248   1.815  0.6492 -1.7230  1.4319
 6066SOL    HW219393   8.154   8.352   1.873  0.9818  0.6134 -1.8855
 6067SOL     OW19394   1.260   5.061   4.200  0.6046  0.2778 -0.6291
 6067SOL    HW119395   1.342   5.015   4.219  0.9474  0.0057 -2.5159
 6067SOL    HW219396   1.201   5.036   4.271  1.8586 -0.2954  0.2391
 6068SOL     OW19397   4.525   1.818   7.629  0.4715 -0.3821 -0.1234
 6068SOL    HW119398   4.590   1.863   7.683  0.3127 -0.9573  0.5523
 6068SOL    HW219399   4.541   1.851   7.540  0.6971  0.6228  0.2697
 6069SOL     OW19400   2.260   2.823   1.436  0.4869  0.6338  0.2544
 6069SOL    HW119401   2.249   2.866   1.351 -2.5472  1.3674  0.8940
 6069SOL    HW219402   2.185   2.853   1.488  1.2218 -1.2435  2.5890
 6070SOL     OW19403   4.440   1.168   1.043  1.0427  0.6075 -0.2105
 6070SOL    HW119404   4.506   1.200   1.105 -0.6169 -1.6338  3.0599
 6070SOL    HW219405   4.365   1.225   1.056  0.6911  0.1479 -0.2178
 6071SOL     OW19406   0.698   7.795   0.828  0.5322 -0.1351 -0.1421
 6071SOL    HW119407   0.757   7.773   0.901  0.4839 -0.7323 -0.2742
 6071SOL    HW219408   0.755   7.799   0.752  0.5747  0.4416 -0.0864
 6072SOL     OW19409   0.290   3.602   5.817  0.1007  0.2381  0.1160
 6072SOL    HW119410   0.318   3.636   5.732 -0.5138  0.4234 -0.0181
 6072SOL    HW219411   0.240   3.674   5.857  0.8144  0.3419  0.8590
 6073SOL     OW19412   4.233   7.343   5.797 -1.0512 -0.4093 -0.3066
 6073SOL    HW119413   4.215   7.435   5.815 -0.6081 -0.5868  1.1332
 6073SOL    HW219414   4.292   7.344   5.721 -0.1659  0.5461  0.3743
 6074SOL     OW19415   2.053   5.844   7.565  0.0676  0.3701 -0.2333
 6074SOL    HW119416   2.010   5.800   7.639  0.6127 -1.1605 -0.7858
 6074SOL    HW219417   2.097   5.773   7.518 -0.9309  1.1613 -2.4950
 6075SOL     OW19418   5.988   3.533   4.738 -0.5731 -0.2732  0.0272
 6075SOL    HW119419   5.948   3.597   4.798  1.5102  1.6823 -0.5340
 6075SOL    HW219420   6.071   3.510   4.780  0.1754 -0.1157 -1.3210
 6076SOL     OW19421   1.813   1.754   5.971  0.0373  0.1353 -0.2346
 6076SOL    HW119422   1.794   1.795   6.055 -1.5621 -0.3587 -0.3201
 6076SOL    HW219423   1.820   1.827   5.909  3.3377  0.6956  0.5942
 6077SOL     OW19424   2.639   7.085   0.127 -0.1879  0.4041  0.0120
 6077SOL    HW119425   2.725   7.095   0.085  0.1442 -0.5371  0.4558
 6077SOL    HW219426   2.576   7.098   0.055  0.3587 -0.3942 -0.6340
 6078SOL     OW19427   2.765   0.657   6.719 -0.0804 -0.3620  0.4980
 6078SOL    HW119428   2.692   0.660   6.782 -0.4103  0.5010  0.0902
 6078SOL    HW219429   2.832   0.714   6.756  0.1607 -0.7017  0.5896
 6079SOL     OW19430   6.447   4.829   5.192 -0.1833 -0.0869 -0.0259
 6079SOL    HW119431   6.480   4.827   5.103  0.8819 -1.6456  0.3627
 6079SOL    HW219432   6.518   4.794   5.245 -1.0864  0.0571  1.3372
 6080SOL     OW19433   3.265   3.723   1.609 -0.7141  0.3213  0.2423
 6080SOL    HW119434   3.320   3.744   1.684  0.8729 -0.5502 -0.6241
 6080SOL    HW219435   3.220   3.642   1.634  1.7888 -1.4581 -0.6349
 6081SOL     OW19436   3.591   1.159   1.350  0.0700  0.1785  0.3745
 6081SOL    HW119437   3.608   1.250   1.373  1.9888  0.6551 -2.3216
 6081SOL    HW219438   3.678   1.120   1.341 -0.5617 -0.9333 -1.7781
 6082SOL     OW19439   5.635   0.034   3.741 -0.4888  0.6121 -0.5491
 6082SOL    HW119440   5.626   0.067   3.831  1.2030 -0.4464  0.0414
 6082SOL    HW219441   5.556   0.065   3.697 -0.8494  2.0746  1.0078
 6083SOL     OW19442   8.238   8.503   2.993  0.0190 -0.0717  0.2676
 6083SOL    HW119443   8.320   8.523   3.038  0.6746 -1.3742 -0.2779
 6083SOL    HW219444   8.204   8.426   3.039  0.0495 -0.6434 -0.6554
 6084SOL     OW19445   5.094   8.006   0.833 -0.2503 -0.2571  0.2232
 6084SOL    HW119446   5.142   7.958   0.900  0.4934 -0.8129 -0.6727
 6084SOL    HW219447   5.139   7.984   0.751  1.6445  3.7597 -0.0430
 6085SOL     OW19448   6.915   5.906   7.701 -0.1713  0.1380  0.2609
 6085SOL    HW119449   6.875   5.973   7.645 -0.4492 -0.4608 -0.2754
 6085SOL    HW219450   6.905   5.825   7.651  1.4908 -0.0748  0.2372
 6086SOL     OW19451   1.764   5.306   3.210 -0.1588  0.2333  0.0078
 6086SOL    HW119452   1.815   5.387   3.224 -1.2024  1.0448 -0.7211
 6086SOL    HW219453   1.812   5.259   3.142 -0.4615  1.0904 -0.8249
 6087SOL     OW19454   8.451   5.934   6.527 -0.2871 -0.0717 -0.3436
 6087SOL    HW119455   8.497   5.968   6.451  0.6038  0.1234  0.2725
 6087SOL    HW219456   8.505   5.861   6.558  0.8666  1.5456  1.7202
 6088SOL     OW19457   4.649   7.613   1.731 -0.4851  0.2484 -0.1168
 6088SOL    HW119458   4.563   7.622   1.690 -0.6693 -0.7925  0.0282
 6088SOL    HW219459   4.646   7.675   1.804 -1.4287 -0.3880  0.4019
 6089SOL     OW19460   2.572   4.602   2.208 -0.0559 -0.4414  0.0429
 6089SOL    HW119461   2.605   4.668   2.147  0.1045 -3.1160 -3.0507
 6089SOL    HW219462   2.649   4.577   2.260  0.1791  0.7842  0.3255
 6090SOL     OW19463   4.007   0.332   2.999 -0.0330  0.1197  0.4133
 6090SOL    HW119464   3.975   0.413   2.959 -0.4797 -0.7532 -1.1071
 6090SOL    HW219465   3.928   0.289   3.031 -0.0653 -0.6830 -0.7030
 6091SOL     OW19466   3.277   1.490   7.349 -0.0577 -0.2953 -0.1097
 6091SOL    HW119467   3.210   1.489   7.280 -1.2708 -2.0420  1.0184
 6091SOL    HW219468   3.356   1.522   7.305 -1.3222  0.7392 -1.7571
 6092SOL     OW19469   4.670   6.489   6.200  0.1865  0.4323 -0.1802
 6092SOL    HW119470   4.675   6.486   6.295  0.5609  1.6592 -0.1430
 6092SOL    HW219471   4.752   6.530   6.173 -0.7685  1.9584 -0.8851
 6093SOL     OW19472   4.066   7.470   7.017  0.1119 -0.0911  0.0873
 6093SOL    HW119473   4.021   7.554   7.015 -0.2196 -0.2762 -1.0757
 6093SOL    HW219474   4.104   7.465   7.104 -0.0269  1.1768  0.2352
 6094SOL     OW19475   1.313   5.645   6.368 -0.2173  0.0657  0.7832
 6094SOL    HW119476   1.370   5.721   6.378 -0.1733  0.2492 -0.5979
 6094SOL    HW219477   1.296   5.641   6.274  0.7350 -2.3130  0.6573
 6095SOL     OW19478   3.279   2.086   4.894 -0.6949 -0.1956 -0.4378
 6095SOL    HW119479   3.241   2.084   4.982  0.1085 -0.8555 -0.0806
 6095SOL    HW219480   3.359   2.033   4.902 -1.3370 -1.4526 -1.9129
 6096SOL     OW19481   1.170   6.227   2.858 -0.2899 -0.1914 -0.2677
 6096SOL    HW119482   1.128   6.297   2.807  1.1972  0.9600  0.0346
 6096SOL    HW219483   1.260   6.256   2.870 -0.4282 -0.6841  2.5558
 6097SOL     OW19484   8.285   8.087   1.661  0.2071 -0.0209  0.2524
 6097SOL    HW119485   8.334   8.139   1.597  0.4257 -0.8936 -0.3197
 6097SOL    HW219486   8.218   8.043   1.608 -0.9337  0.8177  0.9588
 6098SOL     OW19487   2.696   1.333   7.675  0.3627 -0.0250  0.6680
 6098SOL    HW119488   2.720   1.421   7.647  1.4324 -0.5432 -0.1343
 6098SOL    HW219489   2.666   1.290   7.596 -2.7036  0.3635  1.5091
 6099SOL     OW19490   3.319   2.336   3.311  0.1368 -0.0840 -0.3963
 6099SOL    HW119491   3.403   2.365   3.345  1.2109 -1.0037 -2.1072
 6099SOL    HW219492   3.254   2.375   3.370  1.6968  1.5176  0.3523
 6100SOL     OW19493   0.562   7.611   2.290 -0.0356  0.6187  0.0416
 6100SOL    HW119494   0.568   7.643   2.380 -0.7532  1.0522 -0.0529
 6100SOL    HW219495   0.627   7.662   2.242  0.3353  0.3995  0.3086
 6101SOL     OW19496   0.401   4.020   7.241 -0.2368 -0.4433  0.3511
 6101SOL    HW119497   0.495   4.034   7.232 -0.5090  0.8488 -0.8409
 6101SOL    HW219498   0.385   4.026   7.335  0.5798  1.6488  0.4214
 6102SOL     OW19499   0.544   5.790   5.986 -0.1238  0.0318 -0.2059
 6102SOL    HW119500   0.611   5.777   5.918  0.4990 -1.4224  0.6316
 6102SOL    HW219501   0.571   5.731   6.057 -1.2025  0.9270  0.9796
 6103SOL     OW19502   5.585   4.022   6.410 -0.1252 -0.5108  0.1627
 6103SOL    HW119503   5.499   3.994   6.379  0.2900 -1.0130 -0.5553
 6103SOL    HW219504   5.574   4.114   6.433 -0.3207  0.0636 -2.0350
 6104SOL     OW19505   0.165   1.345   3.216 -0.0841  0.0316  0.4937
 6104SOL    HW119506   0.168   1.251   3.199  0.9377 -0.0410  1.0244
 6104SOL    HW219507   0.084   1.357   3.267 -0.2579 -0.5378  0.3563
 6105SOL     OW19508   5.428   5.923   6.249 -0.4145 -0.4537  0.3670
 6105SOL    HW119509   5.432   5.933   6.344 -0.6958 -0.7212  0.4079
 6105SOL    HW219510   5.449   5.831   6.233  2.5509  0.1833 -0.0335
 6106SOL     OW19511   2.438   7.693   5.212  0.3505  0.3037  0.4710
 6106SOL    HW119512   2.444   7.787   5.195  1.6798  0.7994  3.1473
 6106SOL    HW219513   2.500   7.653   5.151 -0.3655  1.1182 -0.8210
 6107SOL     OW19514   7.241   3.610   8.120  0.1959  0.1783  0.4025
 6107SOL    HW119515   7.179   3.644   8.055  0.6360 -0.2709 -0.2550
 6107SOL    HW219516   7.185   3.571   8.187 -0.2605  0.5772  0.2599
 6108SOL     OW19517   3.048   6.432   1.686 -0.3450  0.2877 -0.2977
 6108SOL    HW119518   3.131   6.465   1.652  0.5769 -1.7043 -0.1064
 6108SOL    HW219519   3.013   6.378   1.615  0.7240 -2.4455  1.1090
 6109SOL     OW19520   3.907   7.457   2.640  0.9061  0.1846 -0.1295
 6109SOL    HW119521   3.910   7.519   2.567  1.5451  0.8025  0.4096
 6109SOL    HW219522   3.883   7.509   2.716 -1.0106 -0.6687 -0.0823
 6110SOL     OW19523   8.602   0.489   4.212 -0.2930  0.5647  0.4888
 6110SOL    HW119524   8.608   0.570   4.160 -3.1409  0.7509  0.2890
 6110SOL    HW219525   8.673   0.435   4.179  0.1660  2.0473 -1.1522
 6111SOL     OW19526   1.456   3.757   4.976  0.4996  0.4153  0.5942
 6111SOL    HW119527   1.551   3.764   4.983  0.6075 -0.5161  0.2801
 6111SOL    HW219528   1.423   3.840   5.008  1.4127  0.6519  0.9504
 6112SOL     OW19529   3.416   7.484   1.155  1.0632  0.2303 -0.0634
 6112SOL    HW119530   3.420   7.478   1.251 -0.8484  0.6059  0.0830
 6112SOL    HW219531   3.441   7.398   1.124  1.5217  0.0511  0.7925
 6113SOL     OW19532   8.045   3.963   3.975  0.7486  0.5568 -0.3130
 6113SOL    HW119533   8.119   3.949   3.916  1.5408  0.2602  0.7297
 6113SOL    HW219534   8.085   3.986   4.059 -0.3375  0.1634  0.3287
 6114SOL     OW19535   7.747   1.545   8.196  0.0101  0.0479  0.3234
 6114SOL    HW119536   7.701   1.628   8.182 -1.6055 -0.8412  0.2193
 6114SOL    HW219537   7.682   1.477   8.177  1.0467 -1.2533  1.2256
 6115SOL     OW19538   1.912   7.906   3.051  0.1045 -0.3915  0.0655
 6115SOL    HW119539   1.882   7.864   3.132  1.4603  1.0972  1.4013
 6115SOL    HW219540   1.835   7.953   3.019 -0.5641 -1.3228  0.2449
 6116SOL     OW19541   6.839   1.205   1.309  0.0074 -0.2015  0.5890
 6116SOL    HW119542   6.911   1.197   1.372  0.8484  0.0043 -0.3240
 6116SOL    HW219543   6.785   1.128   1.325  0.8473 -0.7686  0.7746
 6117SOL     OW19544   7.443   7.492   2.422 -0.0722 -0.0579 -0.6444
 6117SOL    HW119545   7.509   7.426   2.400 -0.2557 -1.2005  1.9477
 6117SOL    HW219546   7.389   7.499   2.343  1.5221 -1.0413 -1.8828
 6118SOL     OW19547   2.204   6.145   7.403 -0.2980 -0.0474  0.9660
 6118SOL    HW119548   2.235   6.059   7.430  0.4981 -0.0855 -0.0147
 6118SOL    HW219549   2.235   6.205   7.471  0.3993 -0.3351  0.9085
 6119SOL     OW19550   7.523   3.476   3.498  0.3316 -0.6650 -0.4123
 6119SOL    HW119551   7.581   3.400   3.503 -1.1391 -1.8517 -0.6611
 6119SOL    HW219552   7.451   3.447   3.441 -2.1135 -0.3545  2.3232
 6120SOL     OW19553   1.048   0.834   1.877  0.0706  0.1429  0.2791
 6120SOL    HW119554   1.038   0.745   1.842 -1.5364 -0.0949  1.2636
 6120SOL    HW219555   1.122   0.828   1.938 -1.1629 -0.9962  1.7311
 6121SOL     OW19556   4.838   5.469   0.956  0.7432  0.6507 -0.2633
 6121SOL    HW119557   4.829   5.557   0.994 -1.0556  0.9562 -1.2772
 6121SOL    HW219558   4.753   5.452   0.914  1.1089 -1.5142 -0.2435
 6122SOL     OW19559   0.862   0.980   1.691  0.1105  0.5769  0.2447
 6122SOL    HW119560   0.891   1.027   1.612  0.7677 -0.6395 -0.2735
 6122SOL    HW219561   0.943   0.958   1.736 -0.2358  0.6963  0.9354
 6123SOL     OW19562   2.229   1.962   3.190  0.2632 -0.1260  0.6176
 6123SOL    HW119563   2.286   1.890   3.163  0.4563 -0.3088  1.4607
 6123SOL    HW219564   2.228   2.021   3.116  0.9917 -0.4669  0.3220
 6124SOL     OW19565   2.054   5.091   0.570 -0.5153  0.6243 -0.1242
 6124SOL    HW119566   2.071   5.174   0.615  2.7335  1.5212 -2.6294
 6124SOL    HW219567   2.036   5.117   0.479  0.2368 -1.3871 -0.8984
 6125SOL     OW19568   4.684   3.271   2.082  0.0648  0.7008  0.4117
 6125SOL    HW119569   4.745   3.282   2.009 -1.5916 -0.2821 -1.2117
 6125SOL    HW219570   4.639   3.355   2.089 -0.1824  0.6097 -0.0922
 6126SOL     OW19571   5.845   4.465   0.957 -0.3901 -0.9214  0.4725
 6126SOL    HW119572   5.817   4.448   1.047 -0.7006 -0.6730  0.4240
 6126SOL    HW219573   5.813   4.553   0.938  0.3174 -0.6768  0.3695
 6127SOL     OW19574   7.922   7.847   6.186 -0.4577  0.6972  0.1143
 6127SOL    HW119575   7.830   7.875   6.184 -0.2891  1.2657  0.0775
 6127SOL    HW219576   7.934   7.812   6.274 -0.9258 -0.1515 -0.1444
 6128SOL     OW19577   2.380   6.258   4.490  0.2387 -0.0624 -0.2329
 6128SOL    HW119578   2.417   6.337   4.529  0.6647 -0.6748  0.6205
 6128SOL    HW219579   2.423   6.251   4.405  1.3555 -0.2097  0.3304
 6129SOL     OW19580   7.891   6.338   2.727 -0.0584  0.0675  0.6321
 6129SOL    HW119581   7.852   6.420   2.757  0.9845  0.3768  1.2037
 6129SOL    HW219582   7.922   6.295   2.807  0.8575 -0.1133  0.1957
 6130SOL     OW19583   1.970   6.050   4.575  0.3305  0.1867 -0.4902
 6130SOL    HW119584   2.053   6.009   4.601  0.0832  0.2377  0.4312
 6130SOL    HW219585   1.982   6.143   4.594 -0.5432 -0.0417  1.3678
 6131SOL     OW19586   1.010   1.844   0.654 -0.2284  0.5372  0.6872
 6131SOL    HW119587   0.961   1.916   0.693 -0.6292 -0.3447  1.8592
 6131SOL    HW219588   1.101   1.862   0.676 -0.0974  1.5858 -0.5411
 6132SOL     OW19589   7.326   5.229   4.570 -0.1129 -0.0760 -0.0646
 6132SOL    HW119590   7.351   5.257   4.482 -0.4017 -0.5189 -0.2934
 6132SOL    HW219591   7.387   5.275   4.629 -0.3629  0.7602 -0.4459
 6133SOL     OW19592   4.734   4.382   4.097  0.6592  0.3532  1.2353
 6133SOL    HW119593   4.696   4.441   4.162  0.6833  0.5527  1.0698
 6133SOL    HW219594   4.685   4.301   4.106 -1.4490  1.3352 -0.5855
 6134SOL     OW19595   6.876   5.208   6.387 -0.4102  0.2398  0.2670
 6134SOL    HW119596   6.837   5.124   6.412 -0.1073  0.5004  1.7141
 6134SOL    HW219597   6.813   5.274   6.414  0.3200  0.5840  1.1810
 6135SOL     OW19598   8.416   5.524   1.328  0.1088  0.5695  0.2834
 6135SOL    HW119599   8.383   5.506   1.240 -1.0431  0.9811  0.6185
 6135SOL    HW219600   8.469   5.603   1.319 -0.2820  0.8039  0.0102
 6136SOL     OW19601   3.492   1.592   0.795 -0.1259 -0.0191 -0.4311
 6136SOL    HW119602   3.438   1.551   0.863  1.4136  1.1977  1.6290
 6136SOL    HW219603   3.578   1.551   0.805  0.8727  2.0847  0.2805
 6137SOL     OW19604   4.538   0.026   7.061  0.9565  0.4233  0.2713
 6137SOL    HW119605   4.463   0.000   7.006  0.3597  0.5843  0.9966
 6137SOL    HW219606   4.548   0.120   7.045  0.6511  0.5116  0.5880
 6138SOL     OW19607   3.227   3.127   0.313  0.1624  0.0170 -0.0004
 6138SOL    HW119608   3.220   3.039   0.276 -0.0676  0.1382 -0.2454
 6138SOL    HW219609   3.170   3.181   0.258 -0.8489  0.0403  1.0383
 6139SOL     OW19610   3.953   7.465   7.273 -0.0408 -0.1042  0.4472
 6139SOL    HW119611   3.927   7.410   7.348 -1.1635 -0.0813  0.0914
 6139SOL    HW219612   4.048   7.457   7.270 -0.1164 -1.4326  0.8676
 6140SOL     OW19613   8.471   6.766   7.282  0.1272  0.4762 -0.2793
 6140SOL    HW119614   8.532   6.794   7.214  1.5210  2.1122  1.5189
 6140SOL    HW219615   8.469   6.839   7.344 -0.4954 -1.2081  1.8295
 6141SOL     OW19616   2.706   0.078   3.081  0.1761 -0.2797 -0.0115
 6141SOL    HW119617   2.761   0.021   3.136 -1.4438 -1.1364  0.7948
 6141SOL    HW219618   2.675   0.021   3.011 -0.0566  0.0865 -0.2090
 6142SOL     OW19619   4.477   1.165   6.760  0.1359 -0.4869 -0.0179
 6142SOL    HW119620   4.432   1.081   6.752 -0.7385  0.0674 -1.4125
 6142SOL    HW219621   4.415   1.221   6.807  0.5597 -0.5052  0.5739
 6143SOL     OW19622   2.223   3.327   5.094 -0.0634  0.2275 -0.8845
 6143SOL    HW119623   2.300   3.313   5.040 -0.1363 -1.4042 -0.6203
 6143SOL    HW219624   2.207   3.242   5.136  1.2442  1.8721  3.4014
 6144SOL     OW19625   0.309   0.427   4.208 -0.4029  0.2319  0.4371
 6144SOL    HW119626   0.272   0.422   4.296  1.2209 -1.2868  1.0896
 6144SOL    HW219627   0.336   0.519   4.199 -1.6520  0.6840  1.0289
 6145SOL     OW19628   3.913   5.549   5.998 -0.0559  0.0289 -0.1871
 6145SOL    HW119629   3.989   5.495   5.976 -0.5647 -0.0906 -1.7953
 6145SOL    HW219630   3.942   5.639   5.983 -0.3164 -0.0375 -1.2115
 6146SOL     OW19631   2.270   3.367   2.864 -0.6747  0.6284  0.3052
 6146SOL    HW119632   2.235   3.443   2.909 -0.8691  0.7563 -0.0563
 6146SOL    HW219633   2.348   3.400   2.818  0.3410  0.2029  1.6531
 6147SOL     OW19634   2.292   1.664   6.277 -0.3878  0.3368 -0.6519
 6147SOL    HW119635   2.310   1.754   6.252  1.6752  0.8483  2.2496
 6147SOL    HW219636   2.342   1.611   6.214  1.3163  1.3803 -0.2181
 6148SOL     OW19637   1.975   5.285   8.578  0.2147 -0.4354 -0.2361
 6148SOL    HW119638   1.922   5.309   8.653  1.0710 -0.2032  0.3055
 6148SOL    HW219639   1.986   5.190   8.585  0.5201 -0.3790  0.0957
 6149SOL     OW19640   3.282   4.733   4.846  0.0484  0.0958  0.7167
 6149SOL    HW119641   3.328   4.703   4.924  2.0140  1.5573  0.1807
 6149SOL    HW219642   3.330   4.810   4.817 -1.5172  0.4660 -1.1095
 6150SOL     OW19643   6.038   1.163   0.601 -0.2986 -0.6017  0.1506
 6150SOL    HW119644   6.076   1.227   0.541 -1.6213  1.6713  1.6045
 6150SOL    HW219645   6.032   1.209   0.684 -2.2510 -2.2994  1.0207
 6151SOL     OW19646   1.104   2.006   3.461  0.4553  0.0647  0.5093
 6151SOL    HW119647   1.195   2.015   3.488  0.5873  0.2275  0.0273
 6151SOL    HW219648   1.058   2.076   3.506  0.3652 -0.6560  1.5943
 6152SOL     OW19649   0.168   3.584   6.529 -0.1049 -0.4446 -0.1593
 6152SOL    HW119650   0.149   3.542   6.444 -2.0110  0.9634 -0.4806
 6152SOL    HW219651   0.210   3.667   6.506  1.4600 -1.0380  0.3993
 6153SOL     OW19652   2.224   0.339   6.345  0.3030  0.1060  0.0226
 6153SOL    HW119653   2.167   0.299   6.279  0.2964 -0.6154  0.4450
 6153SOL    HW219654   2.311   0.340   6.304  0.2661 -0.1804 -0.0671
 6154SOL     OW19655   5.905   0.775   1.141 -0.0054 -0.1306  0.5596
 6154SOL    HW119656   5.975   0.715   1.118 -1.7998 -1.7592 -1.0037
 6154SOL    HW219657   5.866   0.800   1.057 -2.0262 -0.2272  1.4105
 6155SOL     OW19658   3.361   4.063   8.224 -0.4497  0.0774 -0.0535
 6155SOL    HW119659   3.366   3.976   8.185  0.3735  0.5821 -1.1021
 6155SOL    HW219660   3.450   4.097   8.219 -1.2016  1.9944 -2.0541
 6156SOL     OW19661   4.349   8.049   4.755 -0.6296  0.1442 -0.4172
 6156SOL    HW119662   4.312   8.083   4.836 -1.2531  0.4142 -0.8111
 6156SOL    HW219663   4.330   8.116   4.690  1.9525  1.0677 -0.3422
 6157SOL     OW19664   8.272   2.696   5.524 -0.2431  0.3347 -0.4240
 6157SOL    HW119665   8.198   2.689   5.584 -0.7077  3.6470 -0.4771
 6157SOL    HW219666   8.246   2.763   5.461  2.6192  1.3105 -0.6912
 6158SOL     OW19667   3.377   3.806   0.417 -0.0565  0.3275 -0.5844
 6158SOL    HW119668   3.370   3.835   0.508 -0.7225  0.1277 -0.5671
 6158SOL    HW219669   3.423   3.722   0.422 -2.2107 -0.8865 -0.1794
 6159SOL     OW19670   7.194   5.097   1.160 -0.0411  0.2084  0.3239
 6159SOL    HW119671   7.281   5.056   1.159 -1.0097 -2.0901 -1.6213
 6159SOL    HW219672   7.166   5.094   1.252  0.8188 -1.6898  0.5690
 6160SOL     OW19673   6.760   6.036   0.849 -0.0939  0.1143 -0.6582
 6160SOL    HW119674   6.787   5.944   0.839 -1.8134 -0.5870  0.7085
 6160SOL    HW219675   6.834   6.086   0.815  0.9738 -1.7654 -1.2639
 6161SOL     OW19676   1.006   8.152   4.957  0.1769  0.2836  0.3258
 6161SOL    HW119677   1.094   8.139   4.992  0.4088  2.6174  0.7550
 6161SOL    HW219678   0.978   8.237   4.991 -1.6280  0.3313 -1.0722
 6162SOL     OW19679   4.356   6.419   1.368 -0.2566 -0.1277 -0.3928
 6162SOL    HW119680   4.313   6.342   1.405  1.0207 -0.3397  0.6898
 6162SOL    HW219681   4.345   6.487   1.434  1.5666 -0.3534  0.1771
 6163SOL     OW19682   4.797   2.451   1.626  0.0633 -0.2630  0.0035
 6163SOL    HW119683   4.775   2.474   1.535 -0.1331  2.0860  0.5580
 6163SOL    HW219684   4.718   2.475   1.675  1.4982  2.3366  1.2400
 6164SOL     OW19685   1.350   6.933   6.454  0.4066 -0.5121 -0.2416
 6164SOL    HW119686   1.308   6.890   6.529  0.8065  1.0093  0.9050
 6164SOL    HW219687   1.434   6.889   6.444  0.0899 -1.1321 -0.2018
 6165SOL     OW19688   0.176   7.026   0.788 -0.1049  0.6387 -0.2697
 6165SOL    HW119689   0.209   7.095   0.731 -1.0904  1.4222  0.0896
 6165SOL    HW219690   0.107   6.983   0.738 -0.3405  0.7272 -0.0246
 6166SOL     OW19691   1.362   7.465   1.275  0.2079  0.6216  0.5027
 6166SOL    HW119692   1.420   7.507   1.337  1.0127 -2.3602  1.9295
 6166SOL    HW219693   1.276   7.465   1.318  0.1410  0.9428  0.3799
 6167SOL     OW19694   4.209   0.602   4.695 -0.2389  0.4095 -0.1625
 6167SOL    HW119695   4.121   0.595   4.730 -0.6324 -1.1429 -1.3572
 6167SOL    HW219696   4.263   0.548   4.754 -0.2310  0.7219  0.1161
 6168SOL     OW19697   5.401   7.260   5.818  0.5751  0.1130 -0.2615
 6168SOL    HW119698   5.488   7.254   5.778  0.6563  0.2693 -0.1065
 6168SOL    HW219699   5.391   7.178   5.867  0.7969  0.2713  0.0488
 6169SOL     OW19700   6.319   2.138   7.195 -0.6382 -0.6103 -0.4919
 6169SOL    HW119701   6.358   2.060   7.235 -1.6977 -1.3841 -0.9082
 6169SOL    HW219702   6.338   2.130   7.102 -2.7357 -1.6342 -0.8876
 6170SOL     OW19703   0.465   5.927   7.645 -0.1612  0.1254 -0.6327
 6170SOL    HW119704   0.490   6.020   7.644  0.1850  0.0821  1.0074
 6170SOL    HW219705   0.541   5.882   7.610 -0.4836  0.4711 -1.8246
 6171SOL     OW19706   4.155   4.323   7.979 -0.1055  0.0978 -0.1217
 6171SOL    HW119707   4.218   4.391   7.959  0.7392 -0.4867  0.5024
 6171SOL    HW219708   4.115   4.301   7.895  1.1523 -0.1487 -0.6662
 6172SOL     OW19709   8.176   8.488   0.086 -0.1767  0.1215  0.5499
 6172SOL    HW119710   8.167   8.469   0.180  0.6606  0.3099  0.6800
 6172SOL    HW219711   8.257   8.539   0.080  0.1169 -0.4314 -0.3519
 6173SOL     OW19712   7.236   1.843   5.869  0.4936 -0.4538 -0.1539
 6173SOL    HW119713   7.294   1.877   5.800  0.3583  1.0267  0.4256
 6173SOL    HW219714   7.264   1.889   5.948  0.1373 -1.5651  0.6258
 6174SOL     OW19715   1.145   7.749   0.533  0.0390  0.1156 -0.1525
 6174SOL    HW119716   1.152   7.694   0.455 -0.8946 -1.5574  0.8566
 6174SOL    HW219717   1.221   7.806   0.530 -0.1535  0.3328 -2.4357
 6175SOL     OW19718   7.504   2.595   4.259 -0.4034  0.0737 -0.8244
 6175SOL    HW119719   7.523   2.619   4.169 -1.3703  0.4805 -0.9360
 6175SOL    HW219720   7.498   2.679   4.306 -0.2315 -0.1177 -0.4549
 6176SOL     OW19721   7.487   5.534   1.736  0.1026 -0.0621 -0.0534
 6176SOL    HW119722   7.440   5.582   1.667 -0.0898  1.2173  0.9367
 6176SOL    HW219723   7.476   5.587   1.814 -1.3198 -2.4220  1.4742
 6177SOL     OW19724   5.027   4.488   4.577 -0.0301 -0.2628 -0.0620
 6177SOL    HW119725   5.052   4.508   4.487  1.4120 -3.1477 -0.4236
 6177SOL    HW219726   4.950   4.432   4.568 -0.3666  0.0927  0.5539
 6178SOL     OW19727   0.697   6.087   3.134 -0.1784 -0.5664 -0.2794
 6178SOL    HW119728   0.619   6.073   3.080  0.2385 -2.1515 -0.5356
 6178SOL    HW219729   0.751   6.147   3.082 -0.9122 -0.0216 -0.4229
 6179SOL     OW19730   5.383   4.666   1.050 -0.0081 -0.4682 -0.5254
 6179SOL    HW119731   5.322   4.617   1.105  0.6550  1.1547  1.8430
 6179SOL    HW219732   5.336   4.746   1.026  0.2692 -0.4387 -0.9875
 6180SOL     OW19733   5.914   1.216   2.669 -0.2712 -0.0697 -0.1846
 6180SOL    HW119734   5.827   1.224   2.629  0.0866 -3.0746 -1.8783
 6180SOL    HW219735   5.951   1.137   2.629  2.7068  0.3324  1.5251
 6181SOL     OW19736   5.140   4.365   0.021  0.3356 -0.2312 -0.2215
 6181SOL    HW119737   5.077   4.352  -0.050 -0.0421  2.2501 -0.4083
 6181SOL    HW219738   5.210   4.303   0.001 -0.3139 -0.4331 -2.0958
 6182SOL     OW19739   5.715   2.717   7.993  0.0499 -0.0594 -0.3295
 6182SOL    HW119740   5.655   2.776   8.039  0.0651  0.1963 -0.6405
 6182SOL    HW219741   5.756   2.665   8.063 -0.3243 -0.0405 -0.0956
 6183SOL     OW19742   1.600   7.419   8.127  0.0101  0.4998  0.3228
 6183SOL    HW119743   1.629   7.503   8.093 -2.4509  0.8014 -1.2821
 6183SOL    HW219744   1.537   7.387   8.062 -1.0480 -1.3560  2.1421
 6184SOL     OW19745   6.712   0.605   5.865  0.0938  0.3392  0.2868
 6184SOL    HW119746   6.794   0.556   5.853  2.0576  3.6789 -1.5362
 6184SOL    HW219747   6.665   0.592   5.782  0.1108  0.6823  0.2245
 6185SOL     OW19748   4.855   8.561   6.664 -0.0847 -0.0486  0.2041
 6185SOL    HW119749   4.782   8.500   6.671 -0.9135  1.0468  1.5226
 6185SOL    HW219750   4.824   8.641   6.704  1.2768  0.9970 -0.7258
 6186SOL     OW19751   5.923   4.741   3.693 -0.1470  0.1676 -0.1455
 6186SOL    HW119752   5.868   4.677   3.649 -0.6874 -0.3005  1.1858
 6186SOL    HW219753   5.866   4.783   3.757  0.4990  1.1757 -0.1930
 6187SOL     OW19754   3.323   2.322   0.225 -0.1501 -0.3853 -0.1673
 6187SOL    HW119755   3.373   2.330   0.307  1.7569 -0.4428 -1.2701
 6187SOL    HW219756   3.383   2.354   0.158 -1.6376 -0.4589 -1.5775
 6188SOL     OW19757   7.167   8.162   3.548  0.3842 -0.7242  0.1568
 6188SOL    HW119758   7.201   8.186   3.461  3.0602  0.9370  1.5491
 6188SOL    HW219759   7.073   8.183   3.543  1.0048  2.2640 -1.4471
 6189SOL     OW19760   8.098   1.525   3.914 -0.2132 -0.1812  0.0640
 6189SOL    HW119761   8.056   1.585   3.975  0.0368  1.1777 -1.0482
 6189SOL    HW219762   8.128   1.581   3.843  0.1268 -1.6316 -0.9683
 6190SOL     OW19763   2.552   1.433   7.146  0.3985  0.4425 -0.3516
 6190SOL    HW119764   2.603   1.456   7.069  0.7180 -1.2839 -0.6916
 6190SOL    HW219765   2.529   1.341   7.133 -0.2324  0.3490  1.2267
 6191SOL     OW19766   7.440   6.620   1.382  0.4789  0.3011  0.7215
 6191SOL    HW119767   7.466   6.528   1.382 -1.6586 -0.5295 -2.8082
 6191SOL    HW219768   7.352   6.619   1.419  0.4530  0.9032  0.6731
 6192SOL     OW19769   7.773   5.819   3.931 -0.2952  0.2214 -0.2854
 6192SOL    HW119770   7.756   5.789   4.021 -0.6901 -1.3680 -0.8489
 6192SOL    HW219771   7.689   5.809   3.886  0.4424 -1.3166 -1.4174
 6193SOL     OW19772   6.610   6.450   7.255  0.6954 -0.4588 -0.1120
 6193SOL    HW119773   6.566   6.375   7.214  2.3278 -1.7684  0.4387
 6193SOL    HW219774   6.670   6.482   7.187  0.1005  0.2995 -0.2979
 6194SOL     OW19775   0.415   2.276   5.026 -0.0918  0.1510  0.3235
 6194SOL    HW119776   0.379   2.204   5.079  0.5255 -0.2855  0.1666
 6194SOL    HW219777   0.510   2.271   5.041 -0.0031  0.6355 -0.0679
 6195SOL     OW19778   6.632   3.122   3.512 -0.2304 -0.0641 -0.0947
 6195SOL    HW119779   6.655   3.107   3.420  0.1331  0.2842 -0.0617
 6195SOL    HW219780   6.616   3.216   3.517  0.0371 -0.0375  0.2632
 6196SOL     OW19781   4.355   0.411   7.019  0.1673  0.1759  0.3986
 6196SOL    HW119782   4.321   0.322   7.009 -0.9992  0.7099 -0.5026
 6196SOL    HW219783   4.437   0.399   7.067 -1.5400 -1.1069  3.2755
 6197SOL     OW19784   3.821   2.945   3.249  0.6196 -0.4807 -0.6342
 6197SOL    HW119785   3.737   2.964   3.208  1.1229  0.4552 -1.2928
 6197SOL    HW219786   3.800   2.910   3.335 -0.4417 -0.3700 -0.8424
 6198SOL     OW19787   1.759   7.039   5.913 -0.1681  0.1974 -0.3804
 6198SOL    HW119788   1.723   7.128   5.914 -0.7131 -0.0158  1.1351
 6198SOL    HW219789   1.766   7.014   6.005  0.1353 -1.2770 -0.7686
 6199SOL     OW19790   4.732   1.199   3.381 -0.2204 -0.2417  0.2484
 6199SOL    HW119791   4.800   1.263   3.402  0.5132 -0.9395  0.0599
 6199SOL    HW219792   4.652   1.251   3.373  0.0254  0.4300  1.7904
 6200SOL     OW19793   7.387   7.700   5.344 -0.0778  0.6676 -0.6090
 6200SOL    HW119794   7.411   7.655   5.263  1.0700 -0.5092  0.3450
 6200SOL    HW219795   7.462   7.756   5.364 -0.2824  0.8263 -0.2670
 6201SOL     OW19796   3.529   3.295   3.317 -0.8673  0.0722 -0.5362
 6201SOL    HW119797   3.499   3.211   3.281  1.1666 -0.2336 -1.6407
 6201SOL    HW219798   3.461   3.357   3.290 -1.5486 -0.9162 -1.1911
 6202SOL     OW19799   1.446   7.318   0.754  0.6368 -0.3660 -0.1807
 6202SOL    HW119800   1.502   7.350   0.825  0.8724 -1.2253  0.0266
 6202SOL    HW219801   1.442   7.391   0.692 -1.1306  1.1327  1.5824
 6203SOL     OW19802   5.493   5.148   1.194 -0.5203 -0.0115 -0.3189
 6203SOL    HW119803   5.490   5.213   1.124 -1.1153 -0.8219 -1.0628
 6203SOL    HW219804   5.585   5.145   1.220 -0.1989 -0.0541 -1.4050
 6204SOL     OW19805   0.316   0.025   4.723  0.0403 -0.3212 -0.8464
 6204SOL    HW119806   0.368   0.077   4.662  1.2328 -1.3850 -0.7780
 6204SOL    HW219807   0.359   0.037   4.807  0.3366 -1.3937 -0.8264
 6205SOL     OW19808   2.818   1.261   3.387  0.5339  0.0923 -0.3533
 6205SOL    HW119809   2.907   1.231   3.369  1.1826  1.0194  1.0945
 6205SOL    HW219810   2.826   1.357   3.392 -0.3179  0.1291  0.7455
 6206SOL     OW19811   3.916   1.463   3.760 -0.4050 -0.6901  0.1662
 6206SOL    HW119812   3.828   1.496   3.744 -1.3117 -3.0175 -0.1541
 6206SOL    HW219813   3.947   1.511   3.837 -1.8533  0.3369  0.1424
 6207SOL     OW19814   3.321   1.461   1.778 -0.7203 -0.2862 -0.6095
 6207SOL    HW119815   3.275   1.544   1.794  3.0190  1.6069  1.7539
 6207SOL    HW219816   3.348   1.432   1.865 -1.2344 -3.7323 -1.4575
 6208SOL     OW19817   1.498   7.203   2.245 -0.4265 -0.2979 -0.1298
 6208SOL    HW119818   1.504   7.260   2.321 -1.6221  0.2339 -0.4236
 6208SOL    HW219819   1.518   7.116   2.280  0.5973  0.1563  0.4757
 6209SOL     OW19820   1.101   2.346   0.540 -0.4014  0.3623  0.4753
 6209SOL    HW119821   1.024   2.290   0.550 -0.5934  0.6710  0.7314
 6209SOL    HW219822   1.167   2.289   0.499 -1.4904  0.7007 -1.9240
 6210SOL     OW19823   2.648   7.875   0.737  0.1420 -0.2056  0.0677
 6210SOL    HW119824   2.621   7.829   0.658  0.4643 -0.1745 -0.0619
 6210SOL    HW219825   2.721   7.930   0.710 -0.5154  0.7089  0.1346
 6211SOL     OW19826   8.182   4.344   7.383  0.1277 -0.1071  0.5980
 6211SOL    HW119827   8.117   4.378   7.322  0.3295 -0.6290  0.0825
 6211SOL    HW219828   8.134   4.281   7.437 -0.3781  1.3269  1.9160
 6212SOL     OW19829   6.402   2.809   8.508 -0.4135  0.3320 -0.1419
 6212SOL    HW119830   6.375   2.861   8.583 -0.3552  0.1515  0.0033
 6212SOL    HW219831   6.320   2.776   8.471 -0.3424 -1.9600  1.5306
 6213SOL     OW19832   5.270   3.465   3.314  0.2163 -0.0803 -0.4725
 6213SOL    HW119833   5.277   3.498   3.225  1.1225 -2.2934 -1.2910
 6213SOL    HW219834   5.253   3.371   3.304  2.3779 -0.8066  1.6147
 6214SOL     OW19835   6.940   6.442   0.978  0.5199 -0.2776  0.3680
 6214SOL    HW119836   6.984   6.359   0.997  2.6094  1.0238  1.5733
 6214SOL    HW219837   6.981   6.505   1.037 -3.4832  0.9914  2.1883
 6215SOL     OW19838   3.481   0.695   2.802  0.2701 -0.5958 -0.7778
 6215SOL    HW119839   3.530   0.689   2.884 -0.8440 -0.3175 -0.0642
 6215SOL    HW219840   3.404   0.747   2.824  0.3230  0.1379 -2.1951
 6216SOL     OW19841   4.578   8.513   2.416  0.4643 -0.6962  0.3234
 6216SOL    HW119842   4.522   8.478   2.346  1.2006  1.0537 -1.2510
 6216SOL    HW219843   4.667   8.510   2.380  0.6303  2.2522  0.1855
 6217SOL     OW19844   6.548   2.203   5.560 -0.3937  0.8084 -0.5390
 6217SOL    HW119845   6.533   2.254   5.481  0.5842  1.9534 -0.0123
 6217SOL    HW219846   6.507   2.254   5.630  1.1960  1.2856  0.0987
 6218SOL     OW19847   3.475   7.211   1.048 -0.7669 -0.2659 -0.3456
 6218SOL    HW119848   3.505   7.142   1.107 -1.0070 -1.3042 -1.3922
 6218SOL    HW219849   3.555   7.244   1.007 -0.7023 -0.3260 -0.2684
 6219SOL     OW19850   2.263   2.254   6.047 -0.3654 -0.0457  0.4122
 6219SOL    HW119851   2.214   2.310   6.107 -2.6232 -2.6282  1.1836
 6219SOL    HW219852   2.318   2.201   6.104 -0.8747 -0.9879  0.0438
 6220SOL     OW19853   2.418   2.275   4.460 -0.2873 -0.2812 -0.8157
 6220SOL    HW119854   2.513   2.288   4.470  0.3363 -0.2538 -4.9352
 6220SOL    HW219855   2.405   2.181   4.472  0.6256 -0.5872 -2.0643
 6221SOL     OW19856   6.874   5.393   0.466  0.7834 -0.5093 -0.4007
 6221SOL    HW119857   6.915   5.320   0.419 -0.0729 -1.4787  0.3355
 6221SOL    HW219858   6.915   5.471   0.428  3.4570 -1.4087  0.4012
 6222SOL     OW19859   5.976   2.046   0.860 -0.1230  0.3115 -1.1638
 6222SOL    HW119860   6.039   2.101   0.908 -0.7128  0.4722 -0.5540
 6222SOL    HW219861   5.894   2.056   0.908  0.2352 -2.9318  0.3834
 6223SOL     OW19862   4.244   7.482   7.232  0.2448  0.0355  0.1831
 6223SOL    HW119863   4.286   7.541   7.295  0.8492  0.1930 -0.3656
 6223SOL    HW219864   4.290   7.399   7.241 -0.2896 -0.2234  0.6102
 6224SOL     OW19865   3.077   2.337   8.591 -0.2740 -0.0689 -0.3371
 6224SOL    HW119866   3.085   2.242   8.578 -2.3324 -0.4050  0.4117
 6224SOL    HW219867   3.140   2.357   8.660 -0.8304 -1.1708  0.5158
 6225SOL     OW19868   8.575   0.771   3.420 -0.3831  0.3652  0.3789
 6225SOL    HW119869   8.534   0.756   3.335  0.3369 -0.0071  0.0894
 6225SOL    HW219870   8.513   0.734   3.483 -1.4130  1.5521  0.1165
 6226SOL     OW19871   3.411   4.840   6.265 -0.0754  0.1962  0.3472
 6226SOL    HW119872   3.460   4.782   6.323  2.0319  0.9877 -0.5020
 6226SOL    HW219873   3.377   4.782   6.196 -0.4371 -0.3932  1.0135
 6227SOL     OW19874   7.133   0.095   3.703 -0.1523  0.3361 -0.1493
 6227SOL    HW119875   7.168   0.060   3.621 -1.3310 -0.0390 -0.5281
 6227SOL    HW219876   7.042   0.118   3.682 -0.4535  0.3116  1.0230
 6228SOL     OW19877   5.085   2.336   1.042 -0.3278  0.1575 -0.3383
 6228SOL    HW119878   5.115   2.401   0.979 -0.0729 -2.1895 -2.8267
 6228SOL    HW219879   5.162   2.317   1.096  0.8659 -0.9799 -2.3086
 6229SOL     OW19880   1.225   7.135   0.932 -0.0866  0.1009 -0.0134
 6229SOL    HW119881   1.314   7.104   0.918 -0.1625  0.7623 -2.3144
 6229SOL    HW219882   1.236   7.220   0.974  0.5270  1.2521 -2.3527
 6230SOL     OW19883   2.749   4.369   3.339  0.6351  0.3081 -0.1983
 6230SOL    HW119884   2.843   4.349   3.346  0.6259 -0.1050 -1.2017
 6230SOL    HW219885   2.713   4.339   3.423  1.2580 -0.3315 -0.1446
 6231SOL     OW19886   8.137   3.005   1.356  0.1456 -0.5950 -0.2705
 6231SOL    HW119887   8.044   3.022   1.368 -0.0257 -0.8291 -1.1949
 6231SOL    HW219888   8.143   2.962   1.270  1.0987 -0.6014 -0.2125
 6232SOL     OW19889   7.635   1.166   0.401 -0.6814 -0.0496 -0.2816
 6232SOL    HW119890   7.704   1.230   0.382 -0.6173 -0.3362 -1.0354
 6232SOL    HW219891   7.628   1.113   0.322 -0.1850 -1.4963  0.5873
 6233SOL     OW19892   8.176   3.001   1.742  0.2299 -0.3981 -0.1430
 6233SOL    HW119893   8.127   3.053   1.806 -0.4539 -0.9658 -0.2027
 6233SOL    HW219894   8.233   3.064   1.699 -0.3785  0.2499 -0.0100
 6234SOL     OW19895   1.752   2.051   4.923  0.2608  0.2158  0.1057
 6234SOL    HW119896   1.780   2.028   4.834  0.5350 -0.9284  0.4776
 6234SOL    HW219897   1.671   2.004   4.936  0.7865 -0.5050  0.8515
 6235SOL     OW19898   0.720   6.263   0.749 -0.0172  0.2141 -0.2466
 6235SOL    HW119899   0.702   6.327   0.681  3.5924  2.7760  0.9087
 6235SOL    HW219900   0.724   6.314   0.830  1.2351 -1.7522  1.0278
 6236SOL     OW19901   3.181   6.648   7.519  0.4901  0.4701 -0.1409
 6236SOL    HW119902   3.102   6.637   7.468 -0.0748  2.1344  0.2984
 6236SOL    HW219903   3.154   6.635   7.610  1.1804 -1.0313 -0.1237
 6237SOL     OW19904   7.751   4.682   2.990  0.0395  0.4350  0.0700
 6237SOL    HW119905   7.831   4.648   3.031  0.7282  1.0125 -0.7776
 6237SOL    HW219906   7.711   4.606   2.948  0.4920  0.2731 -0.0703
 6238SOL     OW19907   7.471   8.464   6.479 -0.2341  0.1995 -0.2041
 6238SOL    HW119908   7.479   8.553   6.514 -0.8875  0.2303 -0.1216
 6238SOL    HW219909   7.519   8.467   6.396 -2.3372  1.3576 -1.4750
 6239SOL     OW19910   4.372   3.250   0.048 -0.6680  0.2863  0.3195
 6239SOL    HW119911   4.360   3.294  -0.036 -2.4733  0.1025  0.4545
 6239SOL    HW219912   4.396   3.320   0.109 -1.3133  0.7301  0.0648
 6240SOL     OW19913   1.327   3.220   3.350  0.2252  0.2383  0.7413
 6240SOL    HW119914   1.320   3.292   3.286 -0.9227  0.2102  0.8070
 6240SOL    HW219915   1.415   3.227   3.385  0.1375  1.6277  0.7397
 6241SOL     OW19916   1.892   0.942   6.054 -1.0730 -0.0207 -0.0507
 6241SOL    HW119917   1.853   0.906   6.133 -2.6392 -0.8832 -1.1539
 6241SOL    HW219918   1.831   0.917   5.984  1.0678 -0.7032 -1.7736
 6242SOL     OW19919   3.885   2.114   3.226 -0.1274  0.5011  0.1933
 6242SOL    HW119920   3.852   2.027   3.203 -0.4981  1.1031 -1.7157
 6242SOL    HW219921   3.966   2.097   3.274 -1.1159 -0.9241  1.4607
 6243SOL     OW19922   0.719   5.060   1.815 -0.2915  0.1335  0.2537
 6243SOL    HW119923   0.703   5.019   1.900  1.4703  1.8793  1.5253
 6243SOL    HW219924   0.726   5.153   1.834  0.5555  0.5425 -1.7697
 6244SOL     OW19925   4.102   2.196   1.857 -0.3311  0.0954 -0.1088
 6244SOL    HW119926   4.099   2.205   1.952 -1.2118  1.0200 -0.1972
 6244SOL    HW219927   4.092   2.103   1.840 -0.0758 -0.0823  0.7074
 6245SOL     OW19928   5.592   4.351   0.601  0.0456  0.4286  0.1683
 6245SOL    HW119929   5.562   4.437   0.633 -0.3740  0.2166  0.3544
 6245SOL    HW219930   5.668   4.331   0.655 -1.1653 -0.3286  1.6827
 6246SOL     OW19931   5.018   3.956   4.150  0.5170  0.0430 -0.2068
 6246SOL    HW119932   4.932   3.993   4.130 -0.2593 -0.5361  1.8419
 6246SOL    HW219933   5.080   4.027   4.136 -0.3427  0.5968 -1.2613
 6247SOL     OW19934   8.056   3.167   6.421  0.1287  0.0582  0.0054
 6247SOL    HW119935   8.124   3.111   6.459  0.6194  0.1097 -0.7774
 6247SOL    HW219936   7.983   3.108   6.403  0.9866 -0.5534 -1.6976
 6248SOL     OW19937   5.707   2.176   0.644 -0.8979  0.3586 -0.0767
 6248SOL    HW119938   5.687   2.162   0.736  0.3711 -2.6784 -0.1680
 6248SOL    HW219939   5.788   2.228   0.645 -0.5594 -0.1590  0.5615
 6249SOL     OW19940   0.812   2.761   0.234  0.5494  0.4850 -0.0215
 6249SOL    HW119941   0.888   2.806   0.269  1.8133 -0.5435 -1.3212
 6249SOL    HW219942   0.771   2.823   0.175 -0.8591  1.7702  2.1604
 6250SOL     OW19943   0.888   3.399   7.379 -0.7111 -0.1796 -0.3275
 6250SOL    HW119944   0.957   3.352   7.332 -1.4779  0.2320 -1.9100
 6250SOL    HW219945   0.935   3.467   7.428  0.3365 -2.0162  1.3963
 6251SOL     OW19946   7.136   3.192   3.791 -0.4105 -0.2305 -0.7203
 6251SOL    HW119947   7.087   3.132   3.847 -0.3515 -0.8941 -1.3752
 6251SOL    HW219948   7.070   3.231   3.734 -0.3095 -0.4673 -1.0050
 6252SOL     OW19949   0.050   1.910   1.545 -0.3279 -0.2224  0.1168
 6252SOL    HW119950   0.079   1.972   1.612 -0.1592 -1.0775  0.8551
 6252SOL    HW219951   0.011   1.965   1.477  0.9523  0.7895  0.1528
 6253SOL     OW19952   5.995   6.572   6.918 -0.0748 -0.1921  0.3405
 6253SOL    HW119953   6.080   6.534   6.937  0.7003  1.8163  1.2300
 6253SOL    HW219954   5.990   6.575   6.822 -0.2900 -2.6191  0.2312
 6254SOL     OW19955   0.950   5.254   3.449 -0.2660 -0.1296  0.1520
 6254SOL    HW119956   1.045   5.251   3.436 -0.0096  2.1848  1.0709
 6254SOL    HW219957   0.931   5.179   3.505  1.2810  0.2469  1.2489
 6255SOL     OW19958   3.533   1.142   1.644  0.1337 -0.8595  0.2844
 6255SOL    HW119959   3.560   1.147   1.735  0.8931 -1.0505  0.0792
 6255SOL    HW219960   3.444   1.176   1.643  0.6194  0.4780  0.8657
 6256SOL     OW19961   0.618   1.201   1.045 -0.1296  0.1653 -0.6415
 6256SOL    HW119962   0.555   1.274   1.044  2.6166  2.7252 -1.7040
 6256SOL    HW219963   0.667   1.213   1.126  0.5788 -0.2846 -0.9917
 6257SOL     OW19964   3.400   2.561   2.449 -0.1362 -0.0826  0.1070
 6257SOL    HW119965   3.369   2.519   2.369  0.2780  0.3764 -0.3000
 6257SOL    HW219966   3.439   2.643   2.420  1.0279 -0.4174  0.6478
 6258SOL     OW19967   4.526   6.499   0.166 -0.0859 -0.5884  0.3330
 6258SOL    HW119968   4.513   6.593   0.150  2.3355 -0.4034 -1.0780
 6258SOL    HW219969   4.556   6.494   0.256 -1.5847 -0.1937  0.8792
 6259SOL     OW19970   8.020   1.655   7.154  0.0105  0.7485 -0.7153
 6259SOL    HW119971   8.092   1.719   7.150  0.8931 -0.0394  1.2814
 6259SOL    HW219972   8.054   1.585   7.210 -2.5874  0.7532  1.0391
 6260SOL     OW19973   1.383   2.949   5.692  0.1629 -0.5581  0.3397
 6260SOL    HW119974   1.407   3.015   5.626 -2.6518 -0.8213 -1.1042
 6260SOL    HW219975   1.418   2.867   5.657 -1.3625 -0.7059 -0.9681
 6261SOL     OW19976   6.425   1.645   4.996 -0.2554 -0.5634 -0.0774
 6261SOL    HW119977   6.517   1.642   5.020 -0.5896  0.4612  1.4689
 6261SOL    HW219978   6.404   1.738   4.991 -1.0737 -0.7817 -0.9442
 6262SOL     OW19979   4.448   4.484   0.154 -0.5940  0.6713 -0.3160
 6262SOL    HW119980   4.529   4.534   0.167 -0.3187  0.2245 -0.2927
 6262SOL    HW219981   4.474   4.409   0.101 -1.0429  0.6458 -0.5093
 6263SOL     OW19982   4.116   6.135   6.549  0.2536  0.2198  0.1731
 6263SOL    HW119983   4.142   6.090   6.629  1.8220  1.4814  0.4225
 6263SOL    HW219984   4.083   6.220   6.579 -1.6934 -0.2882 -0.3620
 6264SOL     OW19985   3.851   3.106   5.799  0.6460  0.1315  0.0149
 6264SOL    HW119986   3.794   3.102   5.876 -0.7601 -0.3851 -1.0194
 6264SOL    HW219987   3.916   3.037   5.813 -0.9878 -1.5273 -0.3050
 6265SOL     OW19988   1.137   3.503   8.104 -0.0435  0.3372  0.1660
 6265SOL    HW119989   1.198   3.568   8.069  2.0195 -1.2780  0.5596
 6265SOL    HW219990   1.176   3.419   8.083 -1.9580 -0.7881  0.8244
 6266SOL     OW19991   1.182   0.422   4.544 -0.1351  0.4028 -0.2570
 6266SOL    HW119992   1.175   0.396   4.636  0.8292  0.1337 -0.2456
 6266SOL    HW219993   1.127   0.358   4.497  1.2606 -0.9890 -0.0977
 6267SOL     OW19994   4.866   1.441   8.446  0.3033  0.1919 -0.2175
 6267SOL    HW119995   4.886   1.395   8.528  0.8089  0.2600 -0.2972
 6267SOL    HW219996   4.773   1.462   8.453  0.8092  2.2745  1.4353
 6268SOL     OW19997   4.396   8.601   8.182 -0.4693 -0.7816  0.1955
 6268SOL    HW119998   4.388   8.525   8.124 -1.3781  0.0417 -0.7910
 6268SOL    HW219999   4.454   8.571   8.252  0.1046 -2.0239 -0.7644
 6269SOL     OW20000   2.649   4.961   6.144  0.3159 -0.2885  0.0428
 6269SOL    HW120001   2.636   4.879   6.097  0.7252 -0.1837 -0.2519
 6269SOL    HW220002   2.562   4.984   6.176 -0.2441  0.3565 -1.8247
 6270SOL     OW20003   4.978   8.230   0.734  0.5510 -0.6369 -0.1122
 6270SOL    HW120004   4.981   8.315   0.778  1.7973  0.0931 -1.5514
 6270SOL    HW220005   5.016   8.169   0.797 -0.9641 -0.3009  1.1989
 6271SOL     OW20006   6.038   6.769   2.284 -0.1228 -0.4118  0.0548
 6271SOL    HW120007   6.110   6.706   2.283 -0.2259 -0.5513  1.1166
 6271SOL    HW220008   5.973   6.732   2.344 -0.2544  0.6242  0.5689
 6272SOL     OW20009   4.914   0.708   0.152 -0.0917 -0.8199  0.4841
 6272SOL    HW120010   4.904   0.778   0.087  2.0195 -0.7316  0.1997
 6272SOL    HW220011   4.850   0.642   0.125 -0.5838  0.0405 -0.5559
 6273SOL     OW20012   2.125   4.551   7.311  0.0698 -0.4228 -0.1049
 6273SOL    HW120013   2.082   4.467   7.325 -0.9122 -0.1332 -1.1722
 6273SOL    HW220014   2.195   4.554   7.376 -0.3560 -1.7296  0.4434
 6274SOL     OW20015   4.283   5.211   5.749 -0.3115  0.1168  0.3716
 6274SOL    HW120016   4.292   5.192   5.843 -1.8221 -0.8630  0.3615
 6274SOL    HW220017   4.285   5.125   5.707 -1.2256  0.4101 -0.3203
 6275SOL     OW20018   5.662   2.986   7.172  0.1877 -0.5093 -0.1514
 6275SOL    HW120019   5.679   2.965   7.080 -1.3686  0.2408 -0.6429
 6275SOL    HW220020   5.623   3.073   7.170  1.9176  0.3748  1.4144
 6276SOL     OW20021   0.325   2.954   2.557  0.0808 -0.2256  0.2901
 6276SOL    HW120022   0.395   2.899   2.521 -0.1945 -1.7169  1.8907
 6276SOL    HW220023   0.317   3.026   2.495  1.9261 -0.8699 -0.7759
 6277SOL     OW20024   2.736   0.369   6.005  0.0144 -0.6738 -0.1544
 6277SOL    HW120025   2.799   0.433   5.972  2.4324 -3.1407 -0.7095
 6277SOL    HW220026   2.787   0.313   6.063 -2.2473 -1.4899  1.1892
 6278SOL     OW20027   2.710   2.357   0.329  0.4066 -0.0054  0.3134
 6278SOL    HW120028   2.785   2.298   0.327  1.1036  0.6864  2.7802
 6278SOL    HW220029   2.641   2.310   0.281  1.4077 -2.1191  0.8328
 6279SOL     OW20030   5.054   6.471   4.096 -0.2717  0.3492  0.0571
 6279SOL    HW120031   5.007   6.517   4.026 -1.1146 -0.4763  0.0641
 6279SOL    HW220032   5.111   6.410   4.050  2.0053  2.3976 -0.0114
 6280SOL     OW20033   2.392   3.610   1.225 -0.5134 -0.1037  0.4797
 6280SOL    HW120034   2.332   3.647   1.289 -0.5100 -0.6808  0.8275
 6280SOL    HW220035   2.382   3.515   1.235 -2.7095 -0.3083 -2.4097
 6281SOL     OW20036   2.107   1.483   5.351  0.0430 -0.0278 -0.0506
 6281SOL    HW120037   2.173   1.489   5.282  0.3707 -0.1966  0.2439
 6281SOL    HW220038   2.023   1.488   5.305  0.2606  0.1124 -0.4335
 6282SOL     OW20039   5.749   6.296   0.966 -0.3516  0.2771 -0.5148
 6282SOL    HW120040   5.723   6.222   1.021 -1.8072  0.6356 -0.6818
 6282SOL    HW220041   5.799   6.256   0.894 -0.1910 -0.4147 -0.0298
 6283SOL     OW20042   7.355   5.888   0.617  0.1763  0.2934  0.0757
 6283SOL    HW120043   7.420   5.947   0.657 -0.6933  1.7949 -0.6324
 6283SOL    HW220044   7.351   5.813   0.676  0.8471  1.2407  1.3705
 6284SOL     OW20045   4.527   4.109   3.026 -0.2393 -0.4669 -0.5008
 6284SOL    HW120046   4.533   4.201   3.052 -3.3020 -0.1933 -0.4078
 6284SOL    HW220047   4.514   4.112   2.931 -0.8142 -0.7725 -0.4336
 6285SOL     OW20048   5.524   6.877   7.221  0.4728  0.1242  0.2254
 6285SOL    HW120049   5.521   6.783   7.205  0.1840  0.4611 -2.1156
 6285SOL    HW220050   5.618   6.898   7.228  0.6526 -0.1058 -1.1783
 6286SOL     OW20051   2.621   7.721   3.429 -0.0545 -0.0379 -0.4570
 6286SOL    HW120052   2.668   7.647   3.467 -1.1413  0.0851  1.2621
 6286SOL    HW220053   2.549   7.682   3.380 -1.5639 -0.1844  1.7309
 6287SOL     OW20054   3.955   5.816   1.754  0.1121  0.2351 -0.1129
 6287SOL    HW120055   4.043   5.844   1.729 -0.0985  0.3354 -0.7579
 6287SOL    HW220056   3.932   5.872   1.828  0.1726  0.9499 -0.6240
 6288SOL     OW20057   7.264   7.979   4.297  0.0427  0.1441 -0.1829
 6288SOL    HW120058   7.339   8.019   4.252 -0.4208  1.3352  0.0828
 6288SOL    HW220059   7.227   7.919   4.232  1.9124 -1.4084  0.0634
 6289SOL     OW20060   3.592   4.290   1.894  0.3468 -0.3812 -0.5511
 6289SOL    HW120061   3.654   4.359   1.874  1.1318 -1.0228 -0.3910
 6289SOL    HW220062   3.581   4.293   1.990  2.6422 -2.2953 -0.1316
 6290SOL     OW20063   0.306   4.433   7.616 -0.6591  0.2017  0.6280
 6290SOL    HW120064   0.299   4.455   7.523  1.7478 -0.2232  0.2817
 6290SOL    HW220065   0.275   4.342   7.621 -0.1926  0.0145  0.1306
 6291SOL     OW20066   2.980   3.092   7.669 -0.3593  0.0471  0.2231
 6291SOL    HW120067   2.920   3.162   7.642 -0.7811 -0.3114  0.2095
 6291SOL    HW220068   3.067   3.131   7.663 -0.3525 -0.1741 -2.2959
 6292SOL     OW20069   7.982   0.013   8.232  0.5147 -0.2543  0.0177
 6292SOL    HW120070   7.987  -0.016   8.323 -1.7725  1.3210  0.7317
 6292SOL    HW220071   7.984   0.109   8.238  2.0049 -0.1247 -1.7722
 6293SOL     OW20072   1.408   1.883   5.858 -0.0796  0.5567 -0.0017
 6293SOL    HW120073   1.472   1.814   5.839  0.8903  1.5079 -0.2763
 6293SOL    HW220074   1.423   1.949   5.791 -0.3643  1.4536  0.7949
 6294SOL     OW20075   3.076   1.684   6.716 -0.2032 -0.3734  0.4375
 6294SOL    HW120076   3.029   1.617   6.767  1.7089 -1.2382  1.1438
 6294SOL    HW220077   3.058   1.766   6.762  0.9092 -1.0380  2.1525
 6295SOL     OW20078   5.944   0.480   7.181 -0.5798 -0.1845  0.0348
 6295SOL    HW120079   5.956   0.497   7.274  0.6406  2.9262 -0.5771
 6295SOL    HW220080   5.849   0.491   7.167 -0.5035  1.4775  0.6029
 6296SOL     OW20081   5.525   1.372   7.357  0.2918  0.6165  0.0201
 6296SOL    HW120082   5.610   1.399   7.392  0.6816 -0.4881 -0.0136
 6296SOL    HW220083   5.545   1.292   7.307 -0.4394  1.4449 -1.6728
 6297SOL     OW20084   2.138   1.614   4.375 -0.1002  0.1331 -0.4522
 6297SOL    HW120085   2.183   1.605   4.291 -1.2480 -1.3522 -0.9526
 6297SOL    HW220086   2.138   1.526   4.412  1.2264  0.9097  1.6073
 6298SOL     OW20087   4.756   6.212   5.451 -0.0567 -0.2273 -0.2996
 6298SOL    HW120088   4.794   6.135   5.492  0.0713  1.3413  2.8416
 6298SOL    HW220089   4.680   6.232   5.504 -0.3442  1.5400 -1.3078
 6299SOL     OW20090   3.282   0.353   1.484  0.3338  0.3844  0.0373
 6299SOL    HW120091   3.245   0.267   1.500  1.9019 -0.3380 -0.0029
 6299SOL    HW220092   3.329   0.374   1.565  1.3033  0.4612 -0.5329
 6300SOL     OW20093   0.987   1.004   5.684 -0.3641 -0.2932  0.4796
 6300SOL    HW120094   0.907   1.051   5.707 -1.9306 -2.2599 -0.6508
 6300SOL    HW220095   1.057   1.067   5.699 -2.2443  2.0335  0.0187
 6301SOL     OW20096   0.812   1.776   4.507 -0.5670  0.2891 -0.2502
 6301SOL    HW120097   0.887   1.724   4.477 -0.2468 -1.1623  2.7376
 6301SOL    HW220098   0.755   1.781   4.430  2.0209  0.5174 -2.3136
 6302SOL     OW20099   1.004   2.841   2.103 -0.0102 -0.1421  0.5306
 6302SOL    HW120100   1.063   2.892   2.159 -0.4090  1.4043 -0.4042
 6302SOL    HW220101   0.916   2.860   2.137 -0.1718 -0.1050  0.0953
 6303SOL     OW20102   7.851   5.112   5.652 -0.3185 -0.0410  0.2268
 6303SOL    HW120103   7.942   5.126   5.627 -0.2166  0.1492  0.7094
 6303SOL    HW220104   7.849   5.025   5.691 -0.3726 -0.1057  0.0806
 6304SOL     OW20105   7.503   8.267   3.200 -0.2521  0.5916 -0.2079
 6304SOL    HW120106   7.496   8.186   3.150  0.0673  0.0708  0.5717
 6304SOL    HW220107   7.578   8.313   3.163  1.7710 -1.0818  1.5421
 6305SOL     OW20108   2.080   2.588   8.447 -0.4399 -0.0652 -0.6153
 6305SOL    HW120109   2.027   2.615   8.372  0.1012  1.4924 -0.4668
 6305SOL    HW220110   2.136   2.663   8.465 -0.4583 -0.4658  1.2762
 6306SOL     OW20111   1.863   0.953   3.673 -0.6611 -0.3684  0.0557
 6306SOL    HW120112   1.865   1.008   3.751 -0.0441 -0.6285  0.2322
 6306SOL    HW220113   1.902   0.870   3.701 -0.9869 -0.6749 -0.3731
 6307SOL     OW20114   4.640   4.545   8.031  0.1006 -0.0886  0.4603
 6307SOL    HW120115   4.671   4.485   7.964 -0.6449  0.2958 -0.2406
 6307SOL    HW220116   4.602   4.489   8.098 -0.2011 -0.4243  0.0099
 6308SOL     OW20117   0.117   5.566   0.437  0.3054 -0.0126  0.6438
 6308SOL    HW120118   0.106   5.503   0.509 -0.2005 -0.1369  0.4632
 6308SOL    HW220119   0.041   5.624   0.445 -0.5015 -0.8343 -0.5818
 6309SOL     OW20120   1.267   6.034   4.607  0.3233  0.6285 -0.3027
 6309SOL    HW120121   1.178   6.062   4.585  0.7091  1.0690 -1.3321
 6309SOL    HW220122   1.322   6.073   4.539  1.3841  0.8633  0.6670
 6310SOL     OW20123   7.629   0.256   2.445 -0.2211 -0.1806 -0.1975
 6310SOL    HW120124   7.620   0.184   2.508  0.6522  0.7773  1.0906
 6310SOL    HW220125   7.626   0.214   2.359  0.7892 -1.8377  0.5190
 6311SOL     OW20126   4.752   1.599   1.871  0.0479  0.4700  0.4232
 6311SOL    HW120127   4.795   1.680   1.896  0.1778  0.7716 -0.6923
 6311SOL    HW220128   4.801   1.530   1.916  0.0540  0.9959  1.2225
 6312SOL     OW20129   8.294   1.630   0.319  0.1836  0.0179 -0.6681
 6312SOL    HW120130   8.313   1.670   0.404 -1.3860  1.8421 -1.1021
 6312SOL    HW220131   8.243   1.552   0.340 -0.3637  0.5629  0.0705
 6313SOL     OW20132   6.022   4.668   7.127 -0.3573  0.7635 -0.5385
 6313SOL    HW120133   6.109   4.707   7.133  0.7609 -1.5898 -0.3743
 6313SOL    HW220134   6.018   4.631   7.038 -0.6906 -0.2186 -0.1286
 6314SOL     OW20135   1.053   2.167   6.509 -0.0528  0.5311  0.5213
 6314SOL    HW120136   1.088   2.078   6.506 -0.7748  0.2000  1.6142
 6314SOL    HW220137   1.070   2.197   6.598  0.4068  1.5946  0.0934
 6315SOL     OW20138   7.671   2.920   0.919  0.0829  0.2053 -0.2740
 6315SOL    HW120139   7.649   2.971   0.998  0.6095 -0.9946  0.6910
 6315SOL    HW220140   7.588   2.881   0.892 -0.0578  0.4328 -0.1763
 6316SOL     OW20141   4.859   8.352   1.953 -0.1487  0.1954  0.0899
 6316SOL    HW120142   4.765   8.333   1.955 -0.0135 -0.6606 -0.9310
 6316SOL    HW220143   4.898   8.283   2.007 -0.1358  0.8111  0.8812
 6317SOL     OW20144   8.412   2.240   4.445 -0.3955 -0.1499 -0.0554
 6317SOL    HW120145   8.456   2.191   4.375 -0.7545  0.4059 -0.6857
 6317SOL    HW220146   8.322   2.208   4.444 -0.5814  0.3588 -0.3384
 6318SOL     OW20147   7.701   5.798   6.052  0.5606  0.4422  0.7201
 6318SOL    HW120148   7.614   5.822   6.019  0.3415 -1.5385 -0.3153
 6318SOL    HW220149   7.762   5.841   5.993  0.2200  0.1255  0.1213
 6319SOL     OW20150   3.970   6.479   1.986 -0.4730  0.8824  0.2020
 6319SOL    HW120151   3.876   6.470   1.969 -0.4423 -1.6295  0.9601
 6319SOL    HW220152   4.011   6.471   1.900 -0.8701 -0.6317  0.1165
 6320SOL     OW20153   0.208   5.424   0.673 -0.1170 -0.1999  0.6251
 6320SOL    HW120154   0.272   5.354   0.683  0.0236 -0.3131 -0.7847
 6320SOL    HW220155   0.257   5.504   0.692  0.2718 -0.3413  0.2583
 6321SOL     OW20156   0.157   2.670   0.412 -0.3978 -0.4363  0.2966
 6321SOL    HW120157   0.185   2.630   0.494  0.0861  1.3724  1.0576
 6321SOL    HW220158   0.156   2.764   0.430 -0.5484 -0.0106 -1.6921
 6322SOL     OW20159   4.119   6.256   3.422 -0.2125 -0.1225 -0.2638
 6322SOL    HW120160   4.188   6.321   3.411 -1.1216  0.9812  0.3088
 6322SOL    HW220161   4.043   6.294   3.378 -0.8885 -0.5911  0.4679
 6323SOL     OW20162   7.754   7.385   5.743  0.1653 -0.3757  0.2804
 6323SOL    HW120163   7.818   7.409   5.675 -1.3947  0.4759 -0.9716
 6323SOL    HW220164   7.804   7.383   5.824  1.4776  1.9083 -0.3922
 6324SOL     OW20165   5.592   4.874   7.052 -0.4078 -0.0585  0.2150
 6324SOL    HW120166   5.497   4.867   7.042 -0.4444 -0.8954  1.0450
 6324SOL    HW220167   5.619   4.935   6.983 -1.5257  0.0860 -0.1112
 6325SOL     OW20168   5.125   2.835   1.120  0.0399  0.4262 -0.1238
 6325SOL    HW120169   5.037   2.871   1.130 -0.1902 -0.0431 -0.4492
 6325SOL    HW220170   5.165   2.887   1.050 -0.6579 -0.6144 -1.3296
 6326SOL     OW20171   2.175   0.542   3.208  0.9400  0.4417 -0.2799
 6326SOL    HW120172   2.205   0.466   3.259  1.3564 -0.0070 -1.1712
 6326SOL    HW220173   2.202   0.522   3.118  0.1675  1.1971 -0.6844
 6327SOL     OW20174   5.610   5.480   5.856  0.6665 -0.1175 -0.1571
 6327SOL    HW120175   5.663   5.558   5.836  1.2729 -0.5150 -0.0990
 6327SOL    HW220176   5.530   5.493   5.804  0.7814  0.5156 -0.1936
 6328SOL     OW20177   0.115   7.780   2.074  0.3628  0.6987 -0.4589
 6328SOL    HW120178   0.110   7.702   2.129 -1.3694  0.3097 -1.0905
 6328SOL    HW220179   0.149   7.849   2.132  0.0955 -0.0745  0.6372
 6329SOL     OW20180   6.597   4.720   2.007 -0.0680 -0.1260 -0.2380
 6329SOL    HW120181   6.544   4.755   1.935 -0.0551  0.0847 -0.1450
 6329SOL    HW220182   6.535   4.669   2.059 -0.0126 -0.5344 -0.5690
 6330SOL     OW20183   2.060   1.806   3.343  0.0472 -0.2187  0.3923
 6330SOL    HW120184   2.112   1.828   3.266 -0.7099 -0.9051 -0.3405
 6330SOL    HW220185   1.987   1.754   3.309 -1.1436  0.7371  1.3761
 6331SOL     OW20186   4.979   2.000   3.380 -0.0996 -0.0321 -0.5360
 6331SOL    HW120187   4.919   2.066   3.343  0.9724  1.2201 -0.1064
 6331SOL    HW220188   4.961   2.001   3.473  1.3335  1.2073 -0.2255
 6332SOL     OW20189   5.396   7.637   2.886  0.1611  0.2009  0.5575
 6332SOL    HW120190   5.359   7.717   2.850  1.5715  0.4881 -0.2723
 6332SOL    HW220191   5.399   7.653   2.981  0.8414  1.2952  0.3583
 6333SOL     OW20192   6.053   0.979   3.334 -0.0776 -0.1271 -0.4242
 6333SOL    HW120193   5.986   1.026   3.284  0.1574  0.3727 -0.2760
 6333SOL    HW220194   6.005   0.909   3.378 -0.8242  1.2140  1.0041
 6334SOL     OW20195   4.292   4.000   8.223 -0.4809  0.3447  0.1538
 6334SOL    HW120196   4.248   3.942   8.285  0.1937  0.0119  0.3379
 6334SOL    HW220197   4.274   3.962   8.137 -0.1823 -0.0519  0.2614
 6335SOL     OW20198   1.988   4.860   3.101  0.2829  0.2529  0.3948
 6335SOL    HW120199   2.031   4.853   3.015 -0.6661 -0.2198 -0.0591
 6335SOL    HW220200   1.895   4.868   3.080 -0.3503 -3.0668  1.4014
 6336SOL     OW20201   8.244   3.570   8.216  0.1890 -0.0192 -0.4591
 6336SOL    HW120202   8.294   3.611   8.286  0.3941 -1.6788  0.4173
 6336SOL    HW220203   8.181   3.513   8.261 -1.0663  0.4073 -1.5855
 6337SOL     OW20204   5.100   4.027   2.948 -0.6472  0.1373  0.2637
 6337SOL    HW120205   5.046   3.976   2.887 -1.0053 -0.4880  1.0815
 6337SOL    HW220206   5.116   3.968   3.021 -0.2268  0.8713  0.7821
 6338SOL     OW20207   4.187   5.990   0.657 -0.5038  0.2012 -0.3765
 6338SOL    HW120208   4.236   6.063   0.694 -1.1817  0.9724 -0.9689
 6338SOL    HW220209   4.207   5.916   0.714  1.2019  0.5334 -0.4887
 6339SOL     OW20210   6.024   6.108   4.489  0.2814  0.1329  0.2226
 6339SOL    HW120211   5.971   6.188   4.492 -0.3582 -0.2566 -0.4740
 6339SOL    HW220212   6.067   6.111   4.404  1.1114  0.2683  0.6419
 6340SOL     OW20213   5.163   3.051   4.629  0.0667 -0.0474  0.1427
 6340SOL    HW120214   5.233   3.011   4.680  0.7626  1.6349  0.5722
 6340SOL    HW220215   5.178   3.145   4.637  0.4708  0.3455 -3.5035
 6341SOL     OW20216   4.460   3.832   5.129 -0.1888 -0.7091 -0.2060
 6341SOL    HW120217   4.494   3.894   5.193  2.3174 -0.7384 -1.3525
 6341SOL    HW220218   4.510   3.751   5.145 -0.4135 -1.0985 -1.3437
 6342SOL     OW20219   1.689   2.796   3.282  0.4070 -0.1568 -0.0101
 6342SOL    HW120220   1.697   2.814   3.189  0.7261 -2.1203 -0.4095
 6342SOL    HW220221   1.595   2.786   3.297  0.4268 -0.9370 -0.3692
 6343SOL     OW20222   2.938   3.210   0.137 -0.2847 -0.1862 -0.0706
 6343SOL    HW120223   2.971   3.299   0.146 -1.5508  0.0500  4.0105
 6343SOL    HW220224   2.842   3.220   0.138 -0.5273 -1.6102  3.4733
 6344SOL     OW20225   2.958   7.352   2.562  0.0708 -0.9981 -0.0129
 6344SOL    HW120226   2.875   7.380   2.599 -0.5006 -1.2296 -1.0713
 6344SOL    HW220227   2.980   7.420   2.498  0.9270 -0.7086  0.5696
 6345SOL     OW20228   5.531   0.009   6.461  0.7588 -0.2707  0.4819
 6345SOL    HW120229   5.600   0.045   6.406 -1.6035  1.1325 -1.7808
 6345SOL    HW220230   5.539  -0.086   6.451  0.9779 -0.0685 -1.5942
 6346SOL     OW20231   0.332   5.360   3.727 -0.6831  0.1301  0.8727
 6346SOL    HW120232   0.342   5.393   3.816 -1.2286  0.6531  0.7433
 6346SOL    HW220233   0.322   5.265   3.738 -3.2168  0.4058  1.5960
 6347SOL     OW20234   3.455   7.943   4.823 -0.4573 -0.0740  0.8981
 6347SOL    HW120235   3.424   7.969   4.736 -1.3547  1.2123  1.5759
 6347SOL    HW220236   3.508   8.017   4.852  0.3792 -0.7712  1.2171
 6348SOL     OW20237   2.291   0.122   6.912 -0.1366  0.2390 -0.6776
 6348SOL    HW120238   2.329   0.203   6.878 -0.4086  0.7194  0.1221
 6348SOL    HW220239   2.352   0.094   6.980  0.6198 -0.9350 -1.7994
 6349SOL     OW20240   2.810   2.425   5.892  0.2608 -0.2632 -0.3096
 6349SOL    HW120241   2.832   2.346   5.842  0.5135 -0.1693 -0.3470
 6349SOL    HW220242   2.888   2.480   5.885  1.0702 -1.0647  1.8111
 6350SOL     OW20243   0.984   1.316   3.919  0.0427  0.1215 -0.3519
 6350SOL    HW120244   0.947   1.254   3.856 -0.1296 -2.4662  2.1091
 6350SOL    HW220245   1.031   1.261   3.982  0.5538  2.5864  1.5727
 6351SOL     OW20246   4.255   5.920   6.448 -0.2150  0.3163  0.1205
 6351SOL    HW120247   4.199   5.995   6.467 -0.4214  0.4777 -1.0426
 6351SOL    HW220248   4.344   5.953   6.461 -0.1042  1.7617 -3.3242
 6352SOL     OW20249   4.918   4.048   3.213  0.5385 -0.0915  0.0885
 6352SOL    HW120250   4.936   3.965   3.259 -0.4861 -0.5188 -0.2678
 6352SOL    HW220251   4.865   4.023   3.138  1.7154  0.6756 -1.0370
 6353SOL     OW20252   1.312   8.179   4.619  0.1717 -0.1760  0.3116
 6353SOL    HW120253   1.407   8.175   4.630  0.3293 -0.3773 -0.9702
 6353SOL    HW220254   1.299   8.224   4.536 -0.8687  0.0686  0.5908
 6354SOL     OW20255   6.528   4.575   3.115  0.2460  0.2502 -0.1022
 6354SOL    HW120256   6.432   4.578   3.109  0.2567  0.7291 -0.1061
 6354SOL    HW220257   6.549   4.634   3.187  0.4608 -1.0383  0.9138
 6355SOL     OW20258   5.650   1.662   5.528  0.5468 -0.4458 -0.6918
 6355SOL    HW120259   5.600   1.729   5.575 -1.9929 -2.7805  0.2692
 6355SOL    HW220260   5.734   1.658   5.574 -0.8408 -0.7604  2.0306
 6356SOL     OW20261   4.356   3.298   2.179  0.0065  0.3080  0.2512
 6356SOL    HW120262   4.415   3.314   2.105 -0.3380 -2.5737 -0.7780
 6356SOL    HW220263   4.319   3.384   2.199  1.7211  1.5537 -1.5116
 6357SOL     OW20264   2.483   2.596   5.915  0.1665 -0.4827  0.3320
 6357SOL    HW120265   2.516   2.557   5.834  0.0943 -1.2986  0.6861
 6357SOL    HW220266   2.550   2.660   5.940 -0.1755  0.3616 -0.7744
 6358SOL     OW20267   2.996   4.571   7.474  0.4394  0.1793 -0.3028
 6358SOL    HW120268   3.036   4.509   7.413  1.6217  0.8039 -0.2095
 6358SOL    HW220269   3.014   4.657   7.435 -1.5349  0.4740 -0.6438
 6359SOL     OW20270   2.752   0.431   7.807 -0.4321 -0.4663  0.3928
 6359SOL    HW120271   2.756   0.357   7.867 -0.4819 -0.7825  0.0087
 6359SOL    HW220272   2.743   0.508   7.864  0.4843 -0.6732  0.8322
 6360SOL     OW20273   1.676   0.778   0.367  0.2306  0.1356 -0.4395
 6360SOL    HW120274   1.750   0.744   0.418  0.2925 -0.2700 -0.7917
 6360SOL    HW220275   1.688   0.740   0.280 -1.4935 -1.6184  0.0078
 6361SOL     OW20276   7.052   1.491   6.716  0.3489 -0.1610  0.2111
 6361SOL    HW120277   6.957   1.479   6.714  0.1796  1.0748  0.1794
 6361SOL    HW220278   7.083   1.455   6.633 -0.0187 -1.0859  0.4660
 6362SOL     OW20279   0.853   3.830   5.022 -0.3563 -0.7597  0.4225
 6362SOL    HW120280   0.942   3.796   5.011 -0.2178 -0.4341  0.5098
 6362SOL    HW220281   0.802   3.787   4.953 -0.0382 -0.6148  0.0935
 6363SOL     OW20282   6.474   8.043   5.878 -0.0924 -0.7577 -0.0306
 6363SOL    HW120283   6.521   7.987   5.939 -0.2778 -1.3592 -0.4321
 6363SOL    HW220284   6.397   7.992   5.852 -0.2954 -0.2971 -0.3529
 6364SOL     OW20285   3.732   4.578   3.917 -0.2471 -0.3462  0.2936
 6364SOL    HW120286   3.793   4.605   3.849 -2.2418 -0.6416 -1.7198
 6364SOL    HW220287   3.725   4.483   3.907 -2.2506 -0.1490 -0.6780
 6365SOL     OW20288   0.228   7.359   3.268  0.5881  0.0362  0.3404
 6365SOL    HW120289   0.149   7.390   3.312  0.6135 -0.2359  0.5763
 6365SOL    HW220290   0.197   7.305   3.196  0.5432  0.5868 -0.0612
 6366SOL     OW20291   5.873   3.708   4.188 -0.0565  0.9186  0.3515
 6366SOL    HW120292   5.798   3.677   4.138  0.2703  1.1777 -0.3003
 6366SOL    HW220293   5.877   3.649   4.263 -0.3896  0.3651 -0.0605
 6367SOL     OW20294   5.163   4.960   3.171  0.1474 -0.3816  0.7923
 6367SOL    HW120295   5.102   4.987   3.102 -0.1293  0.4395  1.3473
 6367SOL    HW220296   5.212   5.040   3.193  2.8773 -1.3767 -1.0185
 6368SOL     OW20297   7.528   7.912   5.107  0.6837  0.7345  0.4497
 6368SOL    HW120298   7.450   7.956   5.073  0.8699  2.1430  1.7468
 6368SOL    HW220299   7.518   7.821   5.078 -1.2245  0.9600  0.2414
 6369SOL     OW20300   5.873   5.180   7.179 -0.1499  0.5569  1.0140
 6369SOL    HW120301   5.861   5.085   7.168 -3.0135  0.9906 -0.4153
 6369SOL    HW220302   5.935   5.204   7.111 -1.8480  0.1024 -0.7801
 6370SOL     OW20303   4.990   6.335   3.695  0.3060 -0.4738 -0.3905
 6370SOL    HW120304   4.901   6.337   3.658  0.4983 -2.4744 -1.0710
 6370SOL    HW220305   5.047   6.351   3.620  0.5752 -1.2981 -0.3739
 6371SOL     OW20306   1.818   2.642   8.561  0.3475  0.6269 -0.4970
 6371SOL    HW120307   1.904   2.684   8.553  0.6024 -0.1039 -1.8425
 6371SOL    HW220308   1.796   2.616   8.472 -0.7490 -0.2318  0.0084
 6372SOL     OW20309   1.842   0.866   2.861 -0.1564  0.7958  0.0321
 6372SOL    HW120310   1.772   0.877   2.926  0.0448 -1.7371  0.7890
 6372SOL    HW220311   1.919   0.904   2.901  0.1184 -1.3258  1.6469
 6373SOL     OW20312   5.811   3.307   4.659 -0.4713  0.1325 -0.3159
 6373SOL    HW120313   5.751   3.300   4.733  0.1601 -1.3027  0.1031
 6373SOL    HW220314   5.887   3.354   4.695 -0.1991 -0.4917 -0.0601
 6374SOL     OW20315   0.146   7.506   4.323 -0.3691  0.2534 -0.0574
 6374SOL    HW120316   0.170   7.559   4.399 -2.1859  0.3000  0.5241
 6374SOL    HW220317   0.156   7.565   4.248  0.0003  0.6549  0.3038
 6375SOL     OW20318   2.343   3.461   7.736  0.4593  0.4920 -0.4066
 6375SOL    HW120319   2.268   3.405   7.717  0.2748 -0.0367  1.6118
 6375SOL    HW220320   2.412   3.401   7.764  0.9564  1.1124 -0.2695
 6376SOL     OW20321   2.326   0.327   4.383  0.6746 -0.3608  0.3318
 6376SOL    HW120322   2.370   0.400   4.428 -0.6052  0.1094  0.8728
 6376SOL    HW220323   2.351   0.249   4.433  0.0955  0.0304  1.2611
 6377SOL     OW20324   5.497   6.970   5.431 -0.1922 -0.0179 -0.1371
 6377SOL    HW120325   5.538   6.902   5.379 -1.4723 -1.8075  1.0666
 6377SOL    HW220326   5.491   7.046   5.373  2.0602 -0.6218 -1.2372
 6378SOL     OW20327   2.451   7.968   1.522  0.4221  0.3899  0.1521
 6378SOL    HW120328   2.462   7.921   1.439 -0.1711  1.3375 -0.4829
 6378SOL    HW220329   2.540   7.978   1.556  0.6383 -0.3357 -0.1706
 6379SOL     OW20330   0.058   0.073   8.386 -0.9073  0.2268  0.5557
 6379SOL    HW120331   0.099   0.122   8.457  0.4978  1.2676 -0.9031
 6379SOL    HW220332   0.014   0.140   8.333  0.1344 -0.1928 -0.8833
 6380SOL     OW20333   4.229   5.175   7.920  0.4675 -0.2038 -0.4613
 6380SOL    HW120334   4.204   5.230   7.994 -0.0380 -0.1370 -0.6773
 6380SOL    HW220335   4.184   5.092   7.936  0.2498 -0.1472 -0.7532
 6381SOL     OW20336   0.967   4.599   1.830 -0.3787 -0.2349  0.1474
 6381SOL    HW120337   1.024   4.533   1.791 -0.3752 -0.1556  0.0183
 6381SOL    HW220338   0.993   4.601   1.922  0.8280  0.8192 -0.1778
 6382SOL     OW20339   7.215   1.862   4.233 -0.1540  0.2421 -0.3876
 6382SOL    HW120340   7.147   1.873   4.299  0.5771 -0.2643  0.4793
 6382SOL    HW220341   7.169   1.828   4.156 -0.8661 -0.1429  0.1957
 6383SOL     OW20342   1.417   1.848   3.879 -0.2159  0.5666 -0.6329
 6383SOL    HW120343   1.475   1.895   3.820  0.3159 -1.1463 -1.5534
 6383SOL    HW220344   1.346   1.909   3.898  0.4641  1.7259 -1.7119
 6384SOL     OW20345   4.363   2.703   3.960  0.1737  0.5350  0.6925
 6384SOL    HW120346   4.318   2.670   4.038 -0.9071 -1.0691 -0.5459
 6384SOL    HW220347   4.316   2.783   3.937 -0.7335 -0.0159  0.6058
 6385SOL     OW20348   5.799   1.921   0.559 -0.0051  0.0086 -0.4913
 6385SOL    HW120349   5.755   1.993   0.603 -2.7188  0.7698 -4.0243
 6385SOL    HW220350   5.864   1.963   0.502 -1.3260 -0.2356 -2.2720
 6386SOL     OW20351   4.347   7.012   6.402  0.2643  0.1902  0.0559
 6386SOL    HW120352   4.257   7.024   6.372 -0.5246 -0.2905  2.0866
 6386SOL    HW220353   4.351   6.920   6.430  2.1609 -0.5670 -2.2929
 6387SOL     OW20354   1.989   4.103   0.932  0.2235 -0.1205 -0.2392
 6387SOL    HW120355   1.923   4.034   0.939 -2.0800  1.6245 -2.6848
 6387SOL    HW220356   2.009   4.126   1.023 -3.1577 -0.2888  0.6801
 6388SOL     OW20357   6.759   2.170   0.438  0.5345  0.2248 -0.2390
 6388SOL    HW120358   6.825   2.149   0.504 -0.4329 -1.2430  0.2954
 6388SOL    HW220359   6.808   2.170   0.355  1.0622 -1.8954  0.0122
 6389SOL     OW20360   0.404   2.393   3.132 -0.3224  0.6086  0.5895
 6389SOL    HW120361   0.339   2.445   3.086 -1.9105 -0.9774  0.9581
 6389SOL    HW220362   0.393   2.417   3.224 -0.2432  0.4800  0.6328
 6390SOL     OW20363   3.295   7.573   4.820  0.2824  0.0169 -0.2081
 6390SOL    HW120364   3.367   7.511   4.834  0.0762 -0.1211  0.2850
 6390SOL    HW220365   3.217   7.528   4.853  0.2948  0.9153  1.1536
 6391SOL     OW20366   1.350   3.326   7.666  0.4866  0.6731 -0.8361
 6391SOL    HW120367   1.395   3.252   7.627  0.4112 -0.5675  1.2541
 6391SOL    HW220368   1.283   3.287   7.722 -1.6678  2.4123 -2.0136
 6392SOL     OW20369   2.207   0.978   5.619  0.5808 -0.1502 -0.0556
 6392SOL    HW120370   2.214   1.054   5.562  0.7973  1.4900  2.0117
 6392SOL    HW220371   2.295   0.964   5.652  0.1978 -0.0580  1.0510
 6393SOL     OW20372   5.625   7.881   5.159 -0.3337 -0.1952 -0.5457
 6393SOL    HW120373   5.675   7.959   5.136  0.5167 -0.0324  1.5825
 6393SOL    HW220374   5.611   7.835   5.076  1.3674  0.9368 -1.5032
 6394SOL     OW20375   5.485   2.384   1.769  0.0830 -0.4513  0.1889
 6394SOL    HW120376   5.474   2.326   1.844  0.2950  0.2956  0.8076
 6394SOL    HW220377   5.559   2.347   1.721 -0.7848 -1.5990 -0.3058
 6395SOL     OW20378   2.947   4.342   5.517 -0.7056 -0.4549 -0.1500
 6395SOL    HW120379   2.877   4.326   5.581 -0.0925 -0.3551  0.5630
 6395SOL    HW220380   2.935   4.274   5.451 -1.6182 -0.2895 -0.1636
 6396SOL     OW20381   4.275   6.761   2.582  0.3955 -0.2838 -0.1447
 6396SOL    HW120382   4.182   6.766   2.561  0.3571  0.5696  0.1793
 6396SOL    HW220383   4.277   6.722   2.670  0.3771 -0.7081 -0.3273
 6397SOL     OW20384   3.268   8.138   6.422 -0.1317  0.7019 -0.3246
 6397SOL    HW120385   3.347   8.089   6.400  0.9095  1.8566  0.6468
 6397SOL    HW220386   3.233   8.094   6.500 -0.7074 -0.0735 -1.0119
 6398SOL     OW20387   5.026   0.662   0.389  0.5623  0.4572  0.0713
 6398SOL    HW120388   4.971   0.586   0.407  2.3135 -1.0727 -0.7628
 6398SOL    HW220389   4.995   0.695   0.304  0.7047 -0.1626 -0.2199
 6399SOL     OW20390   7.881   7.963   0.207 -0.1781 -0.4255 -0.6383
 6399SOL    HW120391   7.808   8.025   0.211 -0.5265 -0.8788  1.7785
 6399SOL    HW220392   7.950   8.003   0.260  0.9042 -0.5918 -1.8557
 6400SOL     OW20393   2.081   4.730   2.584 -0.9895 -0.0044 -0.2398
 6400SOL    HW120394   2.054   4.822   2.578  0.1213  0.3962  0.5288
 6400SOL    HW220395   2.176   4.735   2.597 -1.1759 -1.1822  2.0228
 6401SOL     OW20396   0.999   5.355   7.967 -0.1234  0.4061 -0.1053
 6401SOL    HW120397   0.942   5.408   8.023 -1.5884 -1.4666  0.2861
 6401SOL    HW220398   0.999   5.268   8.007  1.5035 -0.1529 -1.1864
 6402SOL     OW20399   5.328   7.824   2.135 -0.4892  0.3356 -0.6862
 6402SOL    HW120400   5.296   7.914   2.122 -1.6756 -0.3065 -2.7689
 6402SOL    HW220401   5.320   7.784   2.048 -1.3729 -2.2021  0.4874
 6403SOL     OW20402   3.556   0.182   1.611 -0.1433  0.4335 -0.3528
 6403SOL    HW120403   3.511   0.229   1.681  2.7648  0.8283  1.3911
 6403SOL    HW220404   3.571   0.095   1.647  1.0858  0.5331 -0.6026
 6404SOL     OW20405   4.514   6.080   3.045  0.1743 -0.2119  0.3281
 6404SOL    HW120406   4.554   6.107   3.127 -0.8783  0.3067  0.6928
 6404SOL    HW220407   4.514   6.160   2.991  0.8209 -0.5374 -0.1658
 6405SOL     OW20408   0.813   2.732   6.580  0.5138  0.0417 -0.0505
 6405SOL    HW120409   0.833   2.674   6.506  0.1969 -0.1524  0.0162
 6405SOL    HW220410   0.893   2.730   6.633  1.4221  1.5428 -1.2549
 6406SOL     OW20411   3.355   6.851   7.460 -0.0429  0.4404  0.3320
 6406SOL    HW120412   3.289   6.919   7.445 -0.2507  0.2547  0.3990
 6406SOL    HW220413   3.305   6.771   7.475  0.2144 -0.1457 -1.6641
 6407SOL     OW20414   2.840   4.121   6.133 -0.2654  0.2639 -0.0389
 6407SOL    HW120415   2.828   4.038   6.179  1.4394  0.6599  1.2141
 6407SOL    HW220416   2.844   4.096   6.040 -0.1837 -0.9971  0.2840
 6408SOL     OW20417   3.263   6.208   7.329  0.3879  0.3176  0.1185
 6408SOL    HW120418   3.178   6.165   7.319  2.1650 -3.0328 -2.6488
 6408SOL    HW220419   3.275   6.216   7.423 -2.1476 -0.8256  0.6268
 6409SOL     OW20420   5.364   0.358   5.363  0.4754  0.0348 -0.1233
 6409SOL    HW120421   5.433   0.336   5.301 -0.1454 -0.1065 -0.7769
 6409SOL    HW220422   5.394   0.321   5.446  1.8228  1.1649 -0.0794
 6410SOL     OW20423   0.558   2.667   2.205 -0.0551  0.1677  0.2233
 6410SOL    HW120424   0.549   2.657   2.300 -1.4475  0.9910  0.1929
 6410SOL    HW220425   0.578   2.578   2.173 -1.7345 -0.5557  1.0618
 6411SOL     OW20426   4.704   2.156   5.165 -0.0651 -0.1318  0.6733
 6411SOL    HW120427   4.709   2.249   5.140  1.2395 -0.2111  0.5343
 6411SOL    HW220428   4.786   2.140   5.212 -0.2998 -1.2017  0.7380
 6412SOL     OW20429   4.609   4.804   7.916  0.3022  0.2593 -0.2028
 6412SOL    HW120430   4.611   4.721   7.964  0.5431  0.0890 -0.5057
 6412SOL    HW220431   4.586   4.869   7.982 -1.6571 -0.2841 -0.2842
 6413SOL     OW20432   3.665   4.942   2.600  0.1562  0.2360  0.0193
 6413SOL    HW120433   3.730   4.989   2.547  1.0973 -1.9481 -0.8824
 6413SOL    HW220434   3.718   4.888   2.659 -0.8358 -0.9013 -0.1088
 6414SOL     OW20435   5.407   6.338   4.935  0.4828 -0.2808  0.1536
 6414SOL    HW120436   5.486   6.331   4.882  1.4974 -1.1276  1.6837
 6414SOL    HW220437   5.413   6.264   4.997  0.0591  1.3748  2.2914
 6415SOL     OW20438   2.017   6.134   3.178 -0.1493 -0.8443 -0.1232
 6415SOL    HW120439   1.971   6.143   3.261  0.4006 -1.1521  0.2253
 6415SOL    HW220440   2.102   6.176   3.194  0.2302 -1.5367 -0.3003
 6416SOL     OW20441   1.814   1.685   8.199  0.3358 -0.0485  0.5971
 6416SOL    HW120442   1.788   1.633   8.275  0.0607  0.1665  0.6503
 6416SOL    HW220443   1.785   1.634   8.124 -0.0386  0.0776  0.6512
 6417SOL     OW20444   0.500   2.953   3.437 -0.7521  0.1900 -0.2670
 6417SOL    HW120445   0.573   3.015   3.441 -1.5773  1.3745 -2.0336
 6417SOL    HW220446   0.423   3.005   3.459 -1.1166 -1.0362  1.5404
 6418SOL     OW20447   6.412   6.466   3.886  0.0780 -0.4790  0.4236
 6418SOL    HW120448   6.493   6.422   3.859  0.5858 -1.4843  3.2721
 6418SOL    HW220449   6.438   6.521   3.960 -1.6603 -0.0092  0.7219
 6419SOL     OW20450   7.218   8.094   5.354  0.6577 -0.0885  0.8565
 6419SOL    HW120451   7.158   8.155   5.311  0.6047 -0.5396  0.2826
 6419SOL    HW220452   7.304   8.135   5.345  0.7641 -0.5479 -0.3965
 6420SOL     OW20453   4.387   2.039   2.036 -0.3212  0.5268  0.5474
 6420SOL    HW120454   4.403   1.991   1.955  0.9276 -0.7921  1.5289
 6420SOL    HW220455   4.404   2.131   2.013 -2.4630  0.5327 -1.2838
 6421SOL     OW20456   6.173   5.857   6.884 -0.3545  0.0147  0.3444
 6421SOL    HW120457   6.120   5.866   6.805  0.4676  1.5501 -0.0793
 6421SOL    HW220458   6.245   5.799   6.859 -1.2167 -1.1958  0.6045
 6422SOL     OW20459   4.877   3.774   3.077  0.3244  0.0570  0.0821
 6422SOL    HW120460   4.970   3.785   3.098 -0.1611  0.3065  2.2565
 6422SOL    HW220461   4.839   3.732   3.154 -1.6735  1.4451 -0.0673
 6423SOL     OW20462   7.626   5.161   1.057  0.2345 -0.7522  0.1400
 6423SOL    HW120463   7.552   5.099   1.054  1.0825 -1.7809 -0.4474
 6423SOL    HW220464   7.605   5.226   0.990 -0.4692 -0.6288  0.4699
 6424SOL     OW20465   6.705   5.646   2.551 -0.0228  0.2916  0.1264
 6424SOL    HW120466   6.635   5.659   2.486 -0.3497  0.4317  0.5025
 6424SOL    HW220467   6.669   5.583   2.613  0.4499 -0.1680 -0.0567
 6425SOL     OW20468   7.264   2.183   2.770 -0.2040 -0.5860 -0.7966
 6425SOL    HW120469   7.312   2.100   2.773  0.6479 -0.0947 -0.2171
 6425SOL    HW220470   7.308   2.238   2.835  0.4441  0.9695 -2.4848
 6426SOL     OW20471   7.251   5.396   6.195  0.2316 -0.4197  0.3568
 6426SOL    HW120472   7.296   5.456   6.254  0.5133 -1.6318  1.4325
 6426SOL    HW220473   7.315   5.375   6.127 -0.0938  0.9868 -0.4320
 6427SOL     OW20474   3.838   7.164   1.280 -0.0241  0.0308  0.2753
 6427SOL    HW120475   3.860   7.243   1.230 -2.1772 -0.1918 -1.1564
 6427SOL    HW220476   3.778   7.195   1.347  2.1809  0.1755  2.3296
 6428SOL     OW20477   7.873   3.034   1.347  0.0954  0.2548 -0.0100
 6428SOL    HW120478   7.822   2.970   1.298  2.0513 -1.1061 -0.3878
 6428SOL    HW220479   7.845   3.023   1.438 -0.1096 -0.6365 -0.1716
 6429SOL     OW20480   7.053   6.641   6.358  0.6140  0.3785  1.0876
 6429SOL    HW120481   6.977   6.672   6.408 -0.4043 -0.9882  0.4502
 6429SOL    HW220482   7.074   6.713   6.298 -1.7063 -0.0819 -0.4035
 6430SOL     OW20483   0.083   6.010   7.052 -0.1301  0.9605  0.5057
 6430SOL    HW120484   0.138   5.960   7.113 -1.7519 -2.0364 -0.3451
 6430SOL    HW220485   0.026   6.062   7.109  1.6596  2.0974  1.4006
 6431SOL     OW20486   2.045   3.767   2.519 -0.5231  0.0359 -0.5618
 6431SOL    HW120487   2.069   3.710   2.592 -0.0501  0.1940 -0.5950
 6431SOL    HW220488   2.048   3.710   2.442  2.2983  0.6109 -0.9627
 6432SOL     OW20489   3.028   4.324   2.358 -0.2396 -0.0818 -0.2176
 6432SOL    HW120490   2.968   4.382   2.311 -1.6555 -1.1892  0.1499
 6432SOL    HW220491   3.047   4.254   2.296  0.5058  0.1245 -0.2394
 6433SOL     OW20492   7.947   4.246   8.278 -0.3279 -0.2866  0.2878
 6433SOL    HW120493   7.853   4.252   8.297 -0.6197 -0.8314 -0.9088
 6433SOL    HW220494   7.989   4.269   8.361 -1.5109 -0.0972  0.8650
 6434SOL     OW20495   6.096   0.956   7.705  0.0402 -0.5103  0.4238
 6434SOL    HW120496   6.067   0.865   7.707 -1.8574  0.0375  2.2114
 6434SOL    HW220497   6.054   0.992   7.626  0.6558 -1.1252 -0.1941
 6435SOL     OW20498   0.990   4.283   2.443 -0.1588  0.8465  0.0156
 6435SOL    HW120499   1.051   4.262   2.372  0.8327  0.0995  1.0534
 6435SOL    HW220500   1.005   4.376   2.460 -0.1519  0.9473 -0.5166
 6436SOL     OW20501   4.169   0.797   6.293 -0.1366 -0.4197  0.2268
 6436SOL    HW120502   4.089   0.785   6.242 -0.6266  1.1066  0.5855
 6436SOL    HW220503   4.150   0.870   6.352  1.1422 -0.7506  1.1171
 6437SOL     OW20504   4.135   3.450   3.614 -0.0880  0.0337  0.0923
 6437SOL    HW120505   4.067   3.517   3.618 -0.9900 -0.8619  0.0514
 6437SOL    HW220506   4.165   3.453   3.523  0.4862  0.9393  0.2867
 6438SOL     OW20507   2.846   6.493   4.696 -0.3046 -0.0055  0.1366
 6438SOL    HW120508   2.800   6.561   4.745 -0.7365 -0.4002  0.2827
 6438SOL    HW220509   2.919   6.539   4.654 -1.4003  0.8437 -0.9185
 6439SOL     OW20510   6.196   4.539   7.695  0.3246 -0.3260 -0.1743
 6439SOL    HW120511   6.114   4.507   7.658 -0.2899  0.4403  0.4724
 6439SOL    HW220512   6.170   4.581   7.777  1.4187 -0.3942  0.2229
 6440SOL     OW20513   6.620   6.745   3.090 -0.0922 -0.0790  0.7860
 6440SOL    HW120514   6.630   6.658   3.052 -0.1474  0.3492 -0.2403
 6440SOL    HW220515   6.648   6.805   3.021 -0.4721  0.7363  1.3213
 6441SOL     OW20516   2.136   5.101   7.669 -0.7205  0.3501 -0.0271
 6441SOL    HW120517   2.137   5.094   7.574  0.4597  0.5574 -0.0464
 6441SOL    HW220518   2.171   5.017   7.700 -2.5979 -0.3607  0.2983
 6442SOL     OW20519   6.742   3.820   3.144  0.4702 -0.3168  0.4685
 6442SOL    HW120520   6.806   3.792   3.210  0.2566 -1.6911  0.1198
 6442SOL    HW220521   6.773   3.906   3.116  1.8356 -0.6927  0.7471
 6443SOL     OW20522   4.839   5.522   5.733  0.3665  0.1694  0.1481
 6443SOL    HW120523   4.820   5.430   5.753 -0.3750  0.6225  1.6291
 6443SOL    HW220524   4.897   5.550   5.804  1.3559  0.5991 -0.8118
 6444SOL     OW20525   6.768   8.297   4.172  0.0851 -0.7045  0.3830
 6444SOL    HW120526   6.745   8.388   4.157  0.4068 -0.5086  1.0103
 6444SOL    HW220527   6.764   8.256   4.086 -2.2589 -0.6220  0.3783
 6445SOL     OW20528   6.736   3.399   2.654  0.2442 -0.1813 -0.3127
 6445SOL    HW120529   6.655   3.351   2.635  0.6669 -1.0717  0.0594
 6445SOL    HW220530   6.802   3.331   2.664  0.3760  0.2375  2.9104
 6446SOL     OW20531   5.328   3.635   6.008  0.5703  0.1666 -0.5164
 6446SOL    HW120532   5.308   3.692   5.934 -1.4471 -1.7372 -1.5624
 6446SOL    HW220533   5.291   3.679   6.084  0.2056  0.8519 -1.0775
 6447SOL     OW20534   8.194   4.005   1.769  0.2211  0.2288 -0.0993
 6447SOL    HW120535   8.130   4.017   1.698 -0.5029  0.0096  0.5053
 6447SOL    HW220536   8.278   4.029   1.730 -0.1311 -0.1258 -1.1058
 6448SOL     OW20537   1.069   6.241   5.857  0.4608 -0.2978  0.0650
 6448SOL    HW120538   1.035   6.228   5.946 -1.2870 -3.2237 -0.8973
 6448SOL    HW220539   0.992   6.236   5.801  1.5338  1.4721 -1.6630
 6449SOL     OW20540   0.428   1.441   3.336 -0.0047 -0.0734 -0.3926
 6449SOL    HW120541   0.381   1.508   3.287 -1.3247 -0.7988 -0.1868
 6449SOL    HW220542   0.365   1.368   3.343 -0.1342  0.1901  2.8587
 6450SOL     OW20543   7.406   6.862   2.958 -0.1690 -0.2715 -0.4869
 6450SOL    HW120544   7.467   6.898   2.893  0.3380  2.6242  1.4267
 6450SOL    HW220545   7.320   6.875   2.918  0.1356  1.3433 -0.7099
 6451SOL     OW20546   3.991   0.443   5.601  0.0488 -0.1114  0.3200
 6451SOL    HW120547   4.072   0.421   5.648 -0.7072  0.8365  2.1760
 6451SOL    HW220548   4.005   0.532   5.570 -0.2713  0.0650  0.6703
 6452SOL     OW20549   6.705   4.021   2.743 -0.3300  0.2108 -0.3126
 6452SOL    HW120550   6.756   3.946   2.713  0.0792  0.5377 -0.4282
 6452SOL    HW220551   6.767   4.076   2.790 -0.3232  1.1627 -1.4005
 6453SOL     OW20552   7.825   6.224   8.472 -0.2533  0.1023  0.1307
 6453SOL    HW120553   7.776   6.146   8.446  0.6756 -0.3520 -0.3069
 6453SOL    HW220554   7.777   6.297   8.432 -0.7237 -0.3041 -0.0621
 6454SOL     OW20555   4.607   0.822   5.335  0.2687 -0.2124 -0.3480
 6454SOL    HW120556   4.689   0.871   5.325 -0.2734  0.4956 -1.3853
 6454SOL    HW220557   4.543   0.888   5.363 -0.4641 -0.3124 -1.7481
 6455SOL     OW20558   7.782   3.180   1.892  0.4912 -0.3237 -0.0449
 6455SOL    HW120559   7.770   3.090   1.920  0.8695 -0.5696 -0.6549
 6455SOL    HW220560   7.725   3.231   1.950  0.9223 -0.8563  0.8659
 6456SOL     OW20561   5.302   2.084   0.751 -0.2154 -0.4958  0.1216
 6456SOL    HW120562   5.345   2.144   0.812 -0.1033  0.0406 -0.4793
 6456SOL    HW220563   5.271   2.013   0.807 -0.6370  0.2729  0.8986
 6457SOL     OW20564   8.505   3.014   2.475 -0.1603 -0.9055 -0.9287
 6457SOL    HW120565   8.459   3.085   2.431 -0.1433 -1.6088 -2.1056
 6457SOL    HW220566   8.542   2.961   2.405  0.3089 -1.7687 -0.0603
 6458SOL     OW20567   2.693   5.828   0.948  0.5102 -0.8149 -0.0219
 6458SOL    HW120568   2.735   5.860   0.868  0.7818  1.7021  1.0363
 6458SOL    HW220569   2.616   5.780   0.917  1.2844 -0.9932 -1.7938
 6459SOL     OW20570   3.531   5.746   3.141 -0.2649  0.1060  0.2455
 6459SOL    HW120571   3.585   5.667   3.141  0.3355  0.4681 -1.4346
 6459SOL    HW220572   3.449   5.718   3.100  0.1672  0.4608 -0.8971
 6460SOL     OW20573   4.578   6.078   1.759 -0.0086 -0.0492 -0.0714
 6460SOL    HW120574   4.657   6.028   1.781 -1.2697 -1.4717  1.3802
 6460SOL    HW220575   4.580   6.152   1.820 -0.1082 -0.4261  0.3966
 6461SOL     OW20576   4.365   0.190   7.608  1.0332 -0.0620  0.2205
 6461SOL    HW120577   4.361   0.259   7.541  0.3569 -1.3984 -1.1753
 6461SOL    HW220578   4.454   0.195   7.642  1.6633  0.1553 -1.3491
 6462SOL     OW20579   3.958   3.384   3.306  0.9297 -0.8069 -0.2061
 6462SOL    HW120580   3.897   3.321   3.344  0.5051 -0.1942  0.1516
 6462SOL    HW220581   4.036   3.378   3.361  0.3457  0.0272  0.7578
 6463SOL     OW20582   2.361   3.538   2.512  0.2846 -0.2812 -0.9126
 6463SOL    HW120583   2.406   3.554   2.595 -0.5917 -0.0199 -0.4746
 6463SOL    HW220584   2.403   3.460   2.476  0.4253 -0.6188 -0.0401
 6464SOL     OW20585   1.740   5.112   1.588  0.8794 -0.0199  0.3019
 6464SOL    HW120586   1.832   5.135   1.581  0.9797 -0.0127  1.4778
 6464SOL    HW220587   1.704   5.174   1.650 -0.4468  1.3890 -1.7303
 6465SOL     OW20588   8.529   6.968   0.676  0.3951  0.0398  0.2061
 6465SOL    HW120589   8.468   6.899   0.649  0.4044 -0.3327  1.0967
 6465SOL    HW220590   8.580   6.986   0.597 -0.4967 -0.0211 -0.4108
 6466SOL     OW20591   8.520   7.238   3.841 -0.6393  0.0654 -0.3796
 6466SOL    HW120592   8.568   7.224   3.922  0.2119  0.9350 -0.7122
 6466SOL    HW220593   8.447   7.177   3.845  0.5315 -1.3519  0.1018
 6467SOL     OW20594   3.258   6.214   7.621  0.3425  0.2791 -0.2590
 6467SOL    HW120595   3.204   6.143   7.656  1.8228 -0.5683  0.4230
 6467SOL    HW220596   3.206   6.293   7.634 -0.4951 -0.4269  0.8689
 6468SOL     OW20597   3.744   5.803   4.154  0.2976 -0.5106 -0.6959
 6468SOL    HW120598   3.805   5.811   4.081 -0.1980 -0.3670 -1.0989
 6468SOL    HW220599   3.671   5.861   4.132  1.3770  1.7311  1.2256
 6469SOL     OW20600   7.101   2.525   5.759  0.0056  0.9343  0.6813
 6469SOL    HW120601   7.017   2.485   5.783  0.3438 -0.6962 -0.6591
 6469SOL    HW220602   7.166   2.479   5.812  0.3368  0.0656 -0.4393
 6470SOL     OW20603   8.520   3.708   1.605  0.3776  0.2373  0.0340
 6470SOL    HW120604   8.583   3.779   1.591  0.9365  0.0074  1.2611
 6470SOL    HW220605   8.477   3.698   1.520  0.3013  2.0115 -0.1896
 6471SOL     OW20606   8.247   5.809   4.243  0.3777  0.0938  0.1698
 6471SOL    HW120607   8.265   5.762   4.162  1.0263  0.0927  0.3132
 6471SOL    HW220608   8.333   5.835   4.276  0.2562 -1.3620  1.7385
 6472SOL     OW20609   2.132   6.850   1.268  0.3330  0.4293 -0.1026
 6472SOL    HW120610   2.109   6.887   1.354  2.4509 -1.4885  1.4178
 6472SOL    HW220611   2.145   6.927   1.213  0.3353  1.8169  1.7079
 6473SOL     OW20612   0.946   6.502   1.208  0.2198  0.5260  0.1892
 6473SOL    HW120613   0.934   6.596   1.223  0.2798  0.4018  1.1099
 6473SOL    HW220614   0.861   6.463   1.231 -0.0505  0.4227 -0.9287
 6474SOL     OW20615   1.683   1.178   0.000 -0.1486  0.0527 -0.6661
 6474SOL    HW120616   1.719   1.267   0.007 -0.4915  0.1472  0.0674
 6474SOL    HW220617   1.759   1.121  -0.006  0.1528  0.2506  0.7906
 6475SOL     OW20618   4.876   6.342   0.394 -0.2508 -0.6656 -0.3231
 6475SOL    HW120619   4.940   6.398   0.437 -0.9015 -0.4924  0.4347
 6475SOL    HW220620   4.912   6.328   0.306 -0.2418  1.2134 -0.6532
 6476SOL     OW20621   4.696   5.853   5.106 -0.1223  0.1089  0.6915
 6476SOL    HW120622   4.633   5.918   5.076  0.7467  0.2351 -0.9619
 6476SOL    HW220623   4.720   5.804   5.028  1.0248 -0.6306  1.4714
 6477SOL     OW20624   5.808   1.591   3.775  0.0354 -0.3662 -0.0787
 6477SOL    HW120625   5.772   1.564   3.690  0.3405  0.7550 -0.5843
 6477SOL    HW220626   5.862   1.667   3.754 -1.0535  0.8369  1.3207
 6478SOL     OW20627   4.517   2.512   3.009  0.3763 -0.6619 -0.2974
 6478SOL    HW120628   4.490   2.508   2.918  2.0637 -0.1309 -0.8557
 6478SOL    HW220629   4.456   2.453   3.055 -0.4824 -0.9448 -1.7477
 6479SOL     OW20630   4.170   4.889   6.489 -0.0464  0.4527  0.1527
 6479SOL    HW120631   4.147   4.926   6.404 -0.0608 -1.1288 -0.5658
 6479SOL    HW220632   4.134   4.951   6.553 -1.1251  1.0436 -0.9857
 6480SOL     OW20633   6.796   4.867   1.162 -0.5864  0.2196 -0.4959
 6480SOL    HW120634   6.786   4.903   1.251 -1.2502  0.5210 -0.6803
 6480SOL    HW220635   6.889   4.848   1.154 -0.6430 -0.6272  0.5836
 6481SOL     OW20636   8.025   5.697   3.246 -0.1888  0.4333 -0.4454
 6481SOL    HW120637   8.041   5.739   3.161  2.1992  0.8892  0.1447
 6481SOL    HW220638   7.980   5.764   3.298 -2.2061 -0.0549 -1.4742
 6482SOL     OW20639   0.611   6.846   3.445  0.3592 -0.1760  0.7338
 6482SOL    HW120640   0.646   6.924   3.402  1.9779 -0.5741  1.2715
 6482SOL    HW220641   0.571   6.879   3.526 -0.5280  0.2857  0.1147
 6483SOL     OW20642   0.098   4.781   4.974  0.3151 -0.1129 -0.2443
 6483SOL    HW120643   0.042   4.829   5.036  2.1886  2.9158 -0.6796
 6483SOL    HW220644   0.166   4.741   5.028  0.4022  0.2035 -0.1189
 6484SOL     OW20645   7.922   0.538   6.048  0.3731 -0.3760  0.3996
 6484SOL    HW120646   7.894   0.456   6.006  1.4959 -0.9161  0.6592
 6484SOL    HW220647   7.913   0.604   5.979 -0.5238 -0.7179  0.1773
 6485SOL     OW20648   3.859   6.736   7.852  0.2776 -0.1855 -0.2500
 6485SOL    HW120649   3.825   6.825   7.842  1.1593  0.1928 -0.0632
 6485SOL    HW220650   3.851   6.697   7.765 -2.0163 -0.6542  0.1227
 6486SOL     OW20651   6.436   6.471   0.904 -0.0561  0.8288 -0.8902
 6486SOL    HW120652   6.482   6.439   0.826  0.1314  0.2322 -0.5449
 6486SOL    HW220653   6.354   6.507   0.872 -0.0648  0.4058 -1.3424
 6487SOL     OW20654   5.105   0.601   3.915  0.1369 -0.0334 -0.1893
 6487SOL    HW120655   5.073   0.522   3.958 -2.3997  1.2651  0.5471
 6487SOL    HW220656   5.185   0.624   3.961  0.4594 -1.7091  0.1284
 6488SOL     OW20657   7.161   1.520   2.112 -0.9927 -0.3295 -0.2781
 6488SOL    HW120658   7.075   1.493   2.082 -0.6656 -0.5216 -1.0598
 6488SOL    HW220659   7.201   1.441   2.149 -0.4618 -0.6848 -1.5646
 6489SOL     OW20660   4.146   6.522   2.189  0.2825  0.0606  0.3793
 6489SOL    HW120661   4.080   6.494   2.126  1.1946  0.6217 -0.8430
 6489SOL    HW220662   4.123   6.475   2.269  0.2446 -2.2016 -0.8884
 6490SOL     OW20663   4.154   4.349   5.026 -0.4339  0.0315  0.1932
 6490SOL    HW120664   4.236   4.393   5.048  0.5436 -1.5609 -0.1385
 6490SOL    HW220665   4.180   4.270   4.980 -2.1840 -0.3659 -0.2011
 6491SOL     OW20666   2.956   8.374   6.992  0.0018 -0.2819 -0.0826
 6491SOL    HW120667   2.879   8.429   7.004  0.6982  0.4345  1.2928
 6491SOL    HW220668   3.027   8.435   6.971  0.3627 -0.8668 -0.6276
 6492SOL     OW20669   2.379   2.092   7.507  0.0042  0.2306  0.0109
 6492SOL    HW120670   2.420   2.038   7.440 -1.0315  1.0270 -1.3144
 6492SOL    HW220671   2.342   2.029   7.569  0.4149 -0.5345 -0.5059
 6493SOL     OW20672   7.766   2.888   6.949  0.1051 -0.0817  0.3083
 6493SOL    HW120673   7.691   2.947   6.941 -0.4340 -0.8717 -0.6539
 6493SOL    HW220674   7.730   2.808   6.988  0.2420 -0.8186 -1.0387
 6494SOL     OW20675   7.480   6.546   4.979 -0.1384  0.0243  0.3933
 6494SOL    HW120676   7.566   6.535   4.940 -1.0702 -0.6098 -1.6219
 6494SOL    HW220677   7.456   6.459   5.011 -0.7326 -0.2127 -0.6529
 6495SOL     OW20678   2.341   5.136   4.773  0.5326 -0.5795 -0.2416
 6495SOL    HW120679   2.353   5.095   4.687  0.9811  0.3743 -0.6417
 6495SOL    HW220680   2.356   5.229   4.758 -1.5458 -0.0762  0.4261
 6496SOL     OW20681   8.255   1.279   1.545  0.1095  0.1953 -0.5697
 6496SOL    HW120682   8.166   1.314   1.543 -0.0712 -0.2738 -0.8921
 6496SOL    HW220683   8.306   1.346   1.591 -0.4390  0.3873 -0.2347
 6497SOL     OW20684   1.383   1.243   2.918  0.1969  0.3343  0.1946
 6497SOL    HW120685   1.365   1.150   2.906 -1.3934  0.6661 -0.2502
 6497SOL    HW220686   1.403   1.253   3.011 -0.5418 -0.3110  0.4247
 6498SOL     OW20687   8.263   5.995   7.446  0.4356  0.0620  0.1811
 6498SOL    HW120688   8.239   5.935   7.516  1.0660 -0.4296 -0.0109
 6498SOL    HW220689   8.319   6.060   7.488  0.4911 -0.0087  0.2176
 6499SOL     OW20690   1.285   1.900   7.022  0.7281  0.1636  0.1167
 6499SOL    HW120691   1.338   1.885   7.100 -1.1009 -4.4916  0.8142
 6499SOL    HW220692   1.338   1.865   6.950 -0.1785 -2.1245  0.4577
 6500SOL     OW20693   2.972   5.932   4.883  0.5251 -0.3848  0.0015
 6500SOL    HW120694   3.051   5.962   4.838  2.1567 -2.3411  1.3833
 6500SOL    HW220695   2.976   5.974   4.969 -0.9201  0.8714 -0.4992
 6501SOL     OW20696   4.040   1.346   2.767 -0.0337 -0.2177  0.2333
 6501SOL    HW120697   3.979   1.391   2.709  0.7474  1.2150  0.4700
 6501SOL    HW220698   4.126   1.368   2.732  0.4466  0.4912  1.7756
 6502SOL     OW20699   8.377   7.446   4.268 -0.2190  0.1782 -0.0930
 6502SOL    HW120700   8.431   7.516   4.232  0.5466 -0.2361  0.2378
 6502SOL    HW220701   8.421   7.420   4.349  0.8628 -2.2880 -1.3473
 6503SOL     OW20702   3.986   1.771   5.380  0.7928  0.5741  0.2139
 6503SOL    HW120703   3.995   1.697   5.320  2.1433  1.0531 -0.2276
 6503SOL    HW220704   3.922   1.743   5.445  0.0710 -0.3511 -0.8632
 6504SOL     OW20705   7.894   3.722   6.684  0.1973  0.2173  0.5731
 6504SOL    HW120706   7.978   3.686   6.656 -0.7409 -1.1336 -0.6620
 6504SOL    HW220707   7.854   3.756   6.604 -0.5054  0.6976  1.1080
 6505SOL     OW20708   5.856   1.526   2.769 -0.0967 -0.0594 -0.2710
 6505SOL    HW120709   5.865   1.431   2.770  1.5365  0.0729  0.0509
 6505SOL    HW220710   5.941   1.559   2.797  0.6616  1.5746 -3.9272
 6506SOL     OW20711   8.082   1.545   4.428  0.5041  0.6427 -0.0492
 6506SOL    HW120712   8.103   1.617   4.487  1.1032 -0.0621  0.6038
 6506SOL    HW220713   7.990   1.560   4.404 -0.0224  0.4520  1.7556
 6507SOL     OW20714   6.790   2.366   2.384  0.2979  0.0902  0.5406
 6507SOL    HW120715   6.830   2.279   2.386 -0.2016 -0.1354  0.9244
 6507SOL    HW220716   6.831   2.413   2.457  0.3649  0.0823  0.5077
 6508SOL     OW20717   5.112   5.605   0.519 -0.3517  0.0142 -0.8496
 6508SOL    HW120718   5.090   5.670   0.452 -0.6662  1.2424  0.4088
 6508SOL    HW220719   5.028   5.565   0.542 -0.6782  1.5650  0.7761
 6509SOL     OW20720   3.945   0.205   6.465 -0.0181  0.1682 -0.5814
 6509SOL    HW120721   3.851   0.220   6.470 -0.0536 -0.2942  0.3226
 6509SOL    HW220722   3.956   0.141   6.395 -0.2951  0.7813 -1.1989
 6510SOL     OW20723   0.335   0.732   5.153  0.2503 -0.0564  0.6349
 6510SOL    HW120724   0.254   0.743   5.104  0.8790  1.3759 -0.1469
 6510SOL    HW220725   0.394   0.689   5.091  0.4648  0.0151  0.7906
 6511SOL     OW20726   6.996   6.097   2.136 -0.2595  0.1899 -0.4840
 6511SOL    HW120727   6.919   6.042   2.147 -0.4378  0.1732 -1.7748
 6511SOL    HW220728   6.963   6.177   2.095 -0.4634  2.4261  3.4838
 6512SOL     OW20729   2.741   1.623   2.174  0.2145  0.0473  0.1493
 6512SOL    HW120730   2.833   1.632   2.198 -0.1560  0.2921  1.5457
 6512SOL    HW220731   2.701   1.705   2.201 -0.2466  0.3657 -1.4046
 6513SOL     OW20732   4.106   1.427   5.376  0.2328  0.4754 -0.2157
 6513SOL    HW120733   4.053   1.449   5.299  0.1404  1.1517  0.0376
 6513SOL    HW220734   4.051   1.451   5.451  0.1008 -0.6871  0.0749
 6514SOL     OW20735   8.508   6.106   1.624  0.1891  0.1975  0.2744
 6514SOL    HW120736   8.477   6.181   1.573 -0.9087  0.2493  0.9773
 6514SOL    HW220737   8.468   6.030   1.581  0.7399  0.0788 -0.0278
 6515SOL     OW20738   3.950   6.797   7.307  0.4414 -0.3167 -0.3844
 6515SOL    HW120739   3.948   6.722   7.247  0.7108  0.5439 -1.5151
 6515SOL    HW220740   4.040   6.830   7.301  0.6148 -0.5299  0.9164
 6516SOL     OW20741   6.869   1.215   4.241  0.0719  0.0056 -0.1540
 6516SOL    HW120742   6.786   1.188   4.279  0.5976 -0.7338  0.5006
 6516SOL    HW220743   6.900   1.286   4.299  0.0212  0.1008 -0.2435
 6517SOL     OW20744   7.079   6.011   4.960 -0.5395 -0.1382 -0.4108
 6517SOL    HW120745   7.128   5.929   4.949 -1.4249 -0.7957  0.4043
 6517SOL    HW220746   7.110   6.067   4.889  2.4640  0.0207  0.8678
 6518SOL     OW20747   8.364   3.466   1.897  0.0673  0.2158 -0.2382
 6518SOL    HW120748   8.400   3.400   1.838 -0.0648 -0.5242  0.4815
 6518SOL    HW220749   8.335   3.416   1.974 -1.1385  0.9688 -0.1760
 6519SOL     OW20750   0.570   6.307   0.005  0.1893  0.8061 -0.0820
 6519SOL    HW120751   0.652   6.287   0.052  0.8200 -2.3541 -2.2068
 6519SOL    HW220752   0.597   6.366  -0.065  0.8336 -0.6559 -1.1085
 6520SOL     OW20753   0.635   7.826   5.325 -0.5208  0.1761 -0.6437
 6520SOL    HW120754   0.702   7.759   5.340 -2.2297 -1.1589  1.6196
 6520SOL    HW220755   0.587   7.795   5.248 -1.2555 -1.2423  0.3438
 6521SOL     OW20756   1.977   3.976   4.638 -0.4597  0.0308  0.1617
 6521SOL    HW120757   2.007   3.980   4.729  0.4036 -1.4054 -0.0182
 6521SOL    HW220758   2.045   4.020   4.588 -0.7421  0.4790  0.1709
 6522SOL     OW20759   8.102   6.462   5.786  0.2064  0.2148 -0.0407
 6522SOL    HW120760   8.144   6.538   5.826  0.1810  0.4586 -0.4743
 6522SOL    HW220761   8.079   6.490   5.697  1.3610 -0.6987 -0.6549
 6523SOL     OW20762   1.651   4.855   5.105 -0.1179  0.6840 -0.4255
 6523SOL    HW120763   1.568   4.900   5.115 -0.5855 -0.0181 -1.0237
 6523SOL    HW220764   1.716   4.925   5.098 -0.3955  1.2445  1.9112
 6524SOL     OW20765   2.980   0.912   1.999 -0.0199 -0.5522  0.3581
 6524SOL    HW120766   2.897   0.907   2.046 -0.7824 -0.4115 -0.9300
 6524SOL    HW220767   3.047   0.897   2.066 -1.1408 -2.5510  1.1134
 6525SOL     OW20768   7.170   0.951   1.237 -0.2102  0.3261  0.0716
 6525SOL    HW120769   7.233   0.959   1.165  0.6010 -1.1077  0.5864
 6525SOL    HW220770   7.088   0.981   1.199  0.6601  1.7392 -0.7758
 6526SOL     OW20771   7.470   1.580   6.585  0.0770 -0.1868 -0.3991
 6526SOL    HW120772   7.416   1.579   6.664  1.1424 -2.2177  0.3732
 6526SOL    HW220773   7.415   1.623   6.519 -1.4529  0.1169  1.0104
 6527SOL     OW20774   3.269   5.713   3.546 -0.4272  0.0886  0.3805
 6527SOL    HW120775   3.313   5.769   3.482 -2.2518 -0.5777 -1.5514
 6527SOL    HW220776   3.267   5.765   3.626  0.7619  1.4769 -0.4496
 6528SOL     OW20777   5.643   6.561   3.367 -0.2352 -0.5323  0.0111
 6528SOL    HW120778   5.636   6.626   3.437 -1.3136 -1.0125  0.3822
 6528SOL    HW220779   5.725   6.516   3.383 -0.2503 -0.3205  0.6895
 6529SOL     OW20780   4.495   3.670   1.831  0.4336  0.4213  0.0362
 6529SOL    HW120781   4.479   3.762   1.813  1.2083  0.4492 -0.5816
 6529SOL    HW220782   4.551   3.641   1.759  0.8467 -0.3277  0.6462
 6530SOL     OW20783   4.255   0.963   2.458  0.6863  0.1729 -0.5775
 6530SOL    HW120784   4.293   0.998   2.539 -1.5386 -0.3356  0.7468
 6530SOL    HW220785   4.215   0.880   2.484 -2.5032  1.2894 -1.5222
 6531SOL     OW20786   0.752   7.914   4.101  0.4865 -0.3757 -0.0419
 6531SOL    HW120787   0.668   7.913   4.145 -1.0220 -0.6219 -2.7302
 6531SOL    HW220788   0.804   7.848   4.147 -0.2799  0.6169  2.4269
 6532SOL     OW20789   1.559   5.317   6.745 -0.8354 -0.5543  0.4132
 6532SOL    HW120790   1.464   5.313   6.745 -0.8413 -0.4145  0.4086
 6532SOL    HW220791   1.585   5.272   6.826 -0.9387  0.1949  0.8670
 6533SOL     OW20792   8.361   6.459   0.177  0.5375 -0.2714 -0.1906
 6533SOL    HW120793   8.408   6.540   0.192 -0.7817  0.9578 -2.1720
 6533SOL    HW220794   8.428   6.395   0.152  1.3361  1.0597 -1.5941
 6534SOL     OW20795   7.897   1.415   8.418  0.5139 -0.2189  0.6206
 6534SOL    HW120796   7.841   1.373   8.483 -0.1923  0.5170  0.5059
 6534SOL    HW220797   7.844   1.486   8.382  2.0955  1.7294  1.8500
 6535SOL     OW20798   0.559   6.976   6.214  0.0983 -0.2602 -0.4821
 6535SOL    HW120799   0.541   6.960   6.307 -0.8832 -0.2950 -0.6725
 6535SOL    HW220800   0.603   7.062   6.213  0.7852 -0.5901  0.0687
 6536SOL     OW20801   7.634   0.492   4.112 -0.3146  0.1776 -0.1242
 6536SOL    HW120802   7.583   0.549   4.169  0.3902 -2.1784  3.1372
 6536SOL    HW220803   7.594   0.405   4.123  0.9102 -0.6834 -1.9654
 6537SOL     OW20804   1.958   7.590   5.002  0.3372 -0.3898  0.0071
 6537SOL    HW120805   1.954   7.495   4.997  0.2002 -0.3307 -1.6822
 6537SOL    HW220806   1.925   7.620   4.917 -0.9673  1.2148  1.0183
 6538SOL     OW20807   5.231   5.535   3.451 -0.1700 -0.2414 -0.3376
 6538SOL    HW120808   5.299   5.468   3.464  0.6999  0.6440 -0.2490
 6538SOL    HW220809   5.180   5.534   3.532  0.0112 -0.5932 -0.2244
 6539SOL     OW20810   5.280   2.668   1.984 -0.0173 -0.6065 -0.3064
 6539SOL    HW120811   5.332   2.730   2.037  1.1292 -1.9313  0.1818
 6539SOL    HW220812   5.302   2.691   1.894  0.7877 -0.5985 -0.1226
 6540SOL     OW20813   6.328   6.482   3.098  0.2856 -0.6443 -0.3852
 6540SOL    HW120814   6.422   6.478   3.114  0.0785  1.2222  1.8142
 6540SOL    HW220815   6.313   6.569   3.061 -0.6659 -0.5698  0.1393
 6541SOL     OW20816   6.502   5.547   1.309 -0.2150  0.2180 -0.5630
 6541SOL    HW120817   6.480   5.503   1.228 -0.4457  0.1557 -0.4678
 6541SOL    HW220818   6.476   5.487   1.378  1.1638 -0.2916 -0.4453
 6542SOL     OW20819   3.364   7.414   3.138 -0.3123  0.0688  0.3004
 6542SOL    HW120820   3.352   7.506   3.163  0.7199  0.9602 -2.1639
 6542SOL    HW220821   3.455   7.395   3.161  0.0558  0.2945 -0.9235
 6543SOL     OW20822   4.114   4.348   3.002 -0.1082  0.1661 -0.2600
 6543SOL    HW120823   4.138   4.256   3.010 -4.0073 -0.9953  0.0896
 6543SOL    HW220824   4.095   4.376   3.092  0.5912  1.2104 -0.4152
 6544SOL     OW20825   1.141   2.849   0.950  0.1071  0.2029  0.2782
 6544SOL    HW120826   1.220   2.804   0.922  0.5266 -0.4020  2.2470
 6544SOL    HW220827   1.070   2.807   0.902  0.8110 -0.4650 -0.1897
 6545SOL     OW20828   4.699   3.043   4.887 -0.7379 -0.1846  0.2580
 6545SOL    HW120829   4.636   2.983   4.847  0.3186 -1.1825  0.0265
 6545SOL    HW220830   4.676   3.129   4.851  0.0123 -0.9834 -2.4298
 6546SOL     OW20831   3.606   3.660   2.681 -0.1366 -0.8966 -0.1431
 6546SOL    HW120832   3.635   3.576   2.718  0.0705 -0.8336 -0.1628
 6546SOL    HW220833   3.670   3.723   2.713 -1.5657 -0.3267  1.8194
 6547SOL     OW20834   2.672   7.008   3.186 -0.2108 -0.3686  0.0839
 6547SOL    HW120835   2.713   6.922   3.177 -0.4484 -0.4693 -0.0630
 6547SOL    HW220836   2.715   7.063   3.120 -0.5276 -0.5583 -0.2890
 6548SOL     OW20837   2.074   3.748   5.506  0.2374  0.1883  0.7347
 6548SOL    HW120838   1.999   3.696   5.478 -0.4253 -0.4252  3.3203
 6548SOL    HW220839   2.080   3.818   5.442 -2.4126  0.1048  0.2689
 6549SOL     OW20840   1.290   5.851   2.343  0.0977 -0.0356 -0.2212
 6549SOL    HW120841   1.291   5.777   2.281  0.7521  1.0208 -1.5462
 6549SOL    HW220842   1.224   5.910   2.308  0.7092  0.7317 -0.0983
 6550SOL     OW20843   4.125   0.402   8.275 -0.1967  0.2406  0.0370
 6550SOL    HW120844   4.205   0.436   8.316  0.2715 -2.0312  1.1591
 6550SOL    HW220845   4.157   0.341   8.208 -0.9686 -0.1283 -0.0008
 6551SOL     OW20846   4.550   6.898   4.975 -0.4513  0.3879  0.0011
 6551SOL    HW120847   4.471   6.952   4.969 -0.2829  0.6321 -0.0427
 6551SOL    HW220848   4.610   6.949   5.030  0.9797  1.8660 -2.7105
 6552SOL     OW20849   2.856   5.600   7.288  0.1746  0.0322  0.6805
 6552SOL    HW120850   2.848   5.519   7.337  1.3295 -0.4483  0.1041
 6552SOL    HW220851   2.852   5.574   7.197 -0.7719  0.7870  0.4874
 6553SOL     OW20852   2.158   7.759   7.367  0.4126  0.4373 -0.1038
 6553SOL    HW120853   2.199   7.723   7.446 -0.3481 -0.8726 -0.2837
 6553SOL    HW220854   2.125   7.845   7.395 -1.2577 -0.6467  1.4959
 6554SOL     OW20855   0.785   3.304   7.882  0.5075 -0.1990  0.2103
 6554SOL    HW120856   0.745   3.328   7.799  0.6814  1.5524  0.6052
 6554SOL    HW220857   0.832   3.382   7.911  1.5207 -1.1747  1.3389
 6555SOL     OW20858   2.766   3.607   5.514 -0.2124 -0.9047  0.0505
 6555SOL    HW120859   2.676   3.572   5.513 -0.0323 -1.3809  0.0365
 6555SOL    HW220860   2.821   3.530   5.497  0.1956 -0.6080  0.0320
 6556SOL     OW20861   7.055   3.260   6.679  0.1684 -0.2973 -0.4751
 6556SOL    HW120862   7.119   3.302   6.621  0.0971  0.9201  0.2977
 6556SOL    HW220863   7.108   3.206   6.738  0.4705  0.4610 -0.0397
 6557SOL     OW20864   2.673   1.647   6.749  0.2626  0.6110  0.4091
 6557SOL    HW120865   2.584   1.681   6.752  0.5090  1.3994 -0.5730
 6557SOL    HW220866   2.675   1.579   6.816 -1.5103 -0.4958 -0.5674
 6558SOL     OW20867   0.297   7.169   7.045  0.0692 -0.4886  0.0690
 6558SOL    HW120868   0.202   7.161   7.041  0.0485 -0.2129 -0.0255
 6558SOL    HW220869   0.327   7.085   7.078 -0.2494 -0.3855  0.6295
 6559SOL     OW20870   7.345   5.020   4.807 -0.8580  0.7555 -0.0813
 6559SOL    HW120871   7.353   5.099   4.752  0.2886 -0.3873 -1.6475
 6559SOL    HW220872   7.435   4.992   4.821 -1.2583 -0.3595  0.3370
 6560SOL     OW20873   0.090   4.480   7.326 -0.4625 -0.1828  0.1642
 6560SOL    HW120874   0.127   4.563   7.357  0.0929 -1.0789  2.0261
 6560SOL    HW220875   0.012   4.506   7.276 -0.1589  1.4610  0.4920
 6561SOL     OW20876   5.125   3.811   7.762  0.0139  0.5409  0.1835
 6561SOL    HW120877   5.168   3.840   7.843 -2.0949 -0.1890  1.6516
 6561SOL    HW220878   5.101   3.720   7.779 -1.7449  0.8100 -0.6822
 6562SOL     OW20879   5.209   6.502   2.072  0.4507 -0.0363 -0.3395
 6562SOL    HW120880   5.242   6.531   2.158  2.8964 -2.0063 -0.4811
 6562SOL    HW220881   5.114   6.509   2.079  0.6355  1.2923  1.9759
 6563SOL     OW20882   2.137   4.533   0.185 -0.4202 -0.4606  0.0225
 6563SOL    HW120883   2.066   4.500   0.128 -0.6628 -2.0671  1.1824
 6563SOL    HW220884   2.192   4.586   0.127 -1.0861 -1.4139 -1.5336
 6564SOL     OW20885   0.696   7.401   7.143  0.4823 -0.1642  0.0121
 6564SOL    HW120886   0.645   7.481   7.134 -0.4067 -0.9047 -2.3892
 6564SOL    HW220887   0.772   7.413   7.086  1.2854 -0.3718  1.0024
 6565SOL     OW20888   7.836   4.760   1.017  0.1986  0.7302  0.3818
 6565SOL    HW120889   7.872   4.841   1.055  0.2553 -0.0400  2.0968
 6565SOL    HW220890   7.747   4.755   1.052 -0.0673  0.4117 -0.3236
 6566SOL     OW20891   3.592   1.323   2.751  0.0292  0.0415  0.3430
 6566SOL    HW120892   3.574   1.398   2.694 -0.2556 -0.5571 -0.3789
 6566SOL    HW220893   3.622   1.361   2.833  0.2164  0.9354 -0.1307
 6567SOL     OW20894   1.509   6.196   3.525  0.4946 -0.2542  0.2375
 6567SOL    HW120895   1.561   6.209   3.446 -1.3883  0.2337 -0.9607
 6567SOL    HW220896   1.539   6.265   3.584 -1.1836  2.3525 -1.7475
 6568SOL     OW20897   4.362   4.538   1.255 -0.0302  0.0130 -0.0646
 6568SOL    HW120898   4.268   4.541   1.237 -0.5451 -1.0778  2.0180
 6568SOL    HW220899   4.373   4.593   1.332  0.8528 -0.6512  0.3076
 6569SOL     OW20900   1.608   6.240   5.047  0.2030 -0.1555  0.4570
 6569SOL    HW120901   1.584   6.330   5.027 -1.4834 -0.9261 -1.2392
 6569SOL    HW220902   1.585   6.229   5.140  1.5522  1.4593  1.0259
 6570SOL     OW20903   1.717   8.272   0.374 -0.1785 -0.4682 -0.4497
 6570SOL    HW120904   1.749   8.353   0.413 -0.3793 -0.8530  0.5461
 6570SOL    HW220905   1.797   8.221   0.356 -0.1141 -0.5303  0.0104
 6571SOL     OW20906   7.850   5.773   1.259  0.6455  0.0385  0.2992
 6571SOL    HW120907   7.833   5.682   1.234 -1.3136  0.1026  1.2364
 6571SOL    HW220908   7.945   5.781   1.256  0.8503 -1.9654 -0.0544
 6572SOL     OW20909   8.554   7.770   6.372 -0.4119  0.3983  0.0558
 6572SOL    HW120910   8.538   7.851   6.421 -1.7168  0.3338 -0.2310
 6572SOL    HW220911   8.468   7.729   6.365 -0.2029  0.1995 -1.9193
 6573SOL     OW20912   2.464   6.560   4.606  0.2259 -0.3965  0.6158
 6573SOL    HW120913   2.414   6.594   4.681 -0.0927 -0.3258  0.3760
 6573SOL    HW220914   2.406   6.573   4.531  0.0155 -1.6706  0.5421
 6574SOL     OW20915   0.233   1.373   3.766  0.2296  0.2902  0.5391
 6574SOL    HW120916   0.190   1.305   3.818 -0.7285  0.4816  0.0246
 6574SOL    HW220917   0.172   1.447   3.768 -0.0442  0.1495 -1.2015
 6575SOL     OW20918   1.932   0.323   6.303  0.2254 -0.1893 -0.3726
 6575SOL    HW120919   1.875   0.283   6.238 -2.3903 -0.7561  2.1194
 6575SOL    HW220920   1.923   0.417   6.288  1.2541 -0.3182 -2.0436
 6576SOL     OW20921   8.475   1.040   8.109  0.0281 -0.4278  0.7512
 6576SOL    HW120922   8.498   1.031   8.201 -0.9976 -0.5571  1.0070
 6576SOL    HW220923   8.406   1.106   8.108  0.6225  0.2071 -0.0346
 6577SOL     OW20924   7.777   7.493   2.820 -0.2416  0.2605  0.2289
 6577SOL    HW120925   7.682   7.483   2.825 -0.3041  0.4854 -0.3897
 6577SOL    HW220926   7.795   7.577   2.864 -0.6541  1.6465 -2.0773
 6578SOL     OW20927   0.120   5.074   3.217 -0.0063 -0.6146 -0.2478
 6578SOL    HW120928   0.051   5.127   3.257  3.1365  2.7108  1.3910
 6578SOL    HW220929   0.157   5.132   3.150 -0.3250 -3.2849 -2.9336
 6579SOL     OW20930   0.309   5.423   5.111  0.1367 -0.8146  0.7415
 6579SOL    HW120931   0.390   5.373   5.113  0.4747 -0.4026 -1.0919
 6579SOL    HW220932   0.300   5.460   5.199  1.7003 -1.2172  1.0831
 6580SOL     OW20933   5.085   8.115   1.685 -0.1283  0.1763  0.2627
 6580SOL    HW120934   5.101   8.022   1.704  0.7574  0.6731  2.3277
 6580SOL    HW220935   5.165   8.145   1.643  0.2812  0.3337  1.1147
 6581SOL     OW20936   2.140   5.340   4.946  0.0584  0.2235 -0.2669
 6581SOL    HW120937   2.234   5.344   4.928  0.2756 -0.8943  0.4807
 6581SOL    HW220938   2.135   5.309   5.036 -1.0232  1.9579  0.3102
 6582SOL     OW20939   1.132   1.559   6.827 -0.3481  0.0025  0.1024
 6582SOL    HW120940   1.179   1.482   6.859  1.9880  1.3928  0.2001
 6582SOL    HW220941   1.171   1.576   6.741 -0.2889  1.4966  0.4053
 6583SOL     OW20942   4.599   1.566   7.697 -0.1474  0.4352 -0.1813
 6583SOL    HW120943   4.682   1.606   7.671  0.2060 -0.2978 -0.2170
 6583SOL    HW220944   4.534   1.635   7.686  0.3273  0.7631 -0.9940
 6584SOL     OW20945   5.041   4.288   5.496  0.3395  0.9129 -0.0421
 6584SOL    HW120946   4.987   4.214   5.468  2.0175  0.1233 -1.3685
 6584SOL    HW220947   5.109   4.295   5.429  0.0401  3.9253 -0.1979
 6585SOL     OW20948   4.537   1.153   1.830 -0.0473  0.1839 -0.6080
 6585SOL    HW120949   4.510   1.083   1.771  0.0008 -1.0853  0.8345
 6585SOL    HW220950   4.618   1.187   1.792 -0.6510  0.2136 -1.9082
 6586SOL     OW20951   3.378   0.391   4.030 -0.3459  0.0148  0.0601
 6586SOL    HW120952   3.375   0.301   4.063 -1.1465  0.3473  0.9428
 6586SOL    HW220953   3.286   0.415   4.020 -0.1280  0.5296 -0.7702
 6587SOL     OW20954   1.134   7.591   4.951  0.3719  0.4947 -0.0250
 6587SOL    HW120955   1.170   7.581   4.863 -0.0232  2.4057 -0.4423
 6587SOL    HW220956   1.054   7.539   4.950  0.4323  0.4009 -0.7465
 6588SOL     OW20957   7.207   4.897   3.557 -0.1932 -0.0844 -0.1153
 6588SOL    HW120958   7.174   4.985   3.536 -1.1383 -0.5380 -0.5920
 6588SOL    HW220959   7.232   4.860   3.473  0.7787 -0.0519  0.1565
 6589SOL     OW20960   3.322   6.685   2.398  0.2707 -0.0885 -0.2877
 6589SOL    HW120961   3.377   6.607   2.406  0.3856 -0.0230 -0.4357
 6589SOL    HW220962   3.384   6.756   2.381  0.1924  0.0781  0.1074
 6590SOL     OW20963   4.571   6.830   5.309 -0.4717 -0.1237  0.5126
 6590SOL    HW120964   4.622   6.749   5.317 -0.2018  0.0954  1.0610
 6590SOL    HW220965   4.580   6.872   5.394 -1.4124  0.0165  0.5494
 6591SOL     OW20966   4.009   8.115   7.366 -0.0846 -0.0776 -0.0440
 6591SOL    HW120967   4.059   8.047   7.412 -1.4038  0.4224  2.2792
 6591SOL    HW220968   3.930   8.069   7.335  0.0032 -0.0452 -0.3172
 6592SOL     OW20969   5.582   5.901   3.144 -0.0024  0.2836  0.1636
 6592SOL    HW120970   5.568   5.855   3.061  0.5577  0.2639  0.0760
 6592SOL    HW220971   5.625   5.983   3.119  0.6699  0.0349  0.4761
 6593SOL     OW20972   4.788   7.333   3.779 -0.0496  0.0035  0.1318
 6593SOL    HW120973   4.758   7.366   3.864 -2.2690 -0.0087 -0.5949
 6593SOL    HW220974   4.732   7.257   3.762 -0.6132  0.8396 -1.9829
 6594SOL     OW20975   1.087   1.710   5.508  0.1410 -0.0578 -0.0475
 6594SOL    HW120976   1.081   1.781   5.443  0.2116 -0.5489 -0.6020
 6594SOL    HW220977   0.998   1.701   5.541  0.0862  0.1455 -0.1381
 6595SOL     OW20978   4.928   2.778   0.773 -0.2995  0.1996  0.1406
 6595SOL    HW120979   5.008   2.818   0.806 -0.1398  0.3333 -0.3909
 6595SOL    HW220980   4.875   2.853   0.744 -1.4574  0.2764  2.2428
 6596SOL     OW20981   5.706   2.311   5.639  0.2150 -0.4068  0.3169
 6596SOL    HW120982   5.693   2.273   5.725 -3.3690  3.2652  1.7573
 6596SOL    HW220983   5.655   2.255   5.580  1.5548 -2.1589  0.7719
 6597SOL     OW20984   4.300   4.687   5.892 -0.5350  0.6135  0.9287
 6597SOL    HW120985   4.340   4.744   5.826 -0.2586  0.3128  0.8350
 6597SOL    HW220986   4.372   4.664   5.951 -0.1729 -1.1902 -0.1138
 6598SOL     OW20987   1.620   5.914   3.110  0.0571  0.0585 -0.0710
 6598SOL    HW120988   1.560   5.956   3.172  0.7659  0.2279  0.5232
 6598SOL    HW220989   1.580   5.829   3.091 -0.9458  0.6343 -0.5909
 6599SOL     OW20990   3.357   1.551   5.879 -0.0857  0.6481  0.2038
 6599SOL    HW120991   3.350   1.633   5.831 -0.4818  2.0580  2.5199
 6599SOL    HW220992   3.450   1.528   5.873  0.3541  2.1422  0.8445
 6600SOL     OW20993   6.759   8.394   2.494  0.2837 -0.4032  0.4432
 6600SOL    HW120994   6.681   8.434   2.533 -0.0459 -0.6782  0.0658
 6600SOL    HW220995   6.727   8.314   2.453  0.8123 -0.6553  0.5145
 6601SOL     OW20996   1.233   6.071   1.775  0.1367  0.1130 -0.3846
 6601SOL    HW120997   1.151   6.115   1.798  1.3350  2.1613  0.3064
 6601SOL    HW220998   1.291   6.142   1.747  1.6476 -1.2742 -0.9329
 6602SOL     OW20999   2.833   7.212   2.165  0.4418 -0.1229 -0.0168
 6602SOL    HW121000   2.796   7.264   2.236  1.0961 -1.4188  1.3344
 6602SOL    HW221001   2.925   7.201   2.190  0.4503 -1.3939 -0.5734
 6603SOL     OW21002   4.860   3.251   0.029  0.2957  0.4339  0.1427
 6603SOL    HW121003   4.801   3.218  -0.039 -1.3103 -2.8030  2.8214
 6603SOL    HW221004   4.921   3.180   0.046 -0.1485  0.5757  2.8655
 6604SOL     OW21005   3.855   6.722   0.790  0.8587  0.2634  0.3987
 6604SOL    HW121006   3.795   6.665   0.838  2.3918  0.0059  2.1579
 6604SOL    HW221007   3.885   6.785   0.856  3.1802 -0.2005 -0.1202
 6605SOL     OW21008   6.549   7.880   3.606 -0.3079  0.1740  0.7106
 6605SOL    HW121009   6.468   7.830   3.612 -1.7735  2.6141  4.3774
 6605SOL    HW221010   6.561   7.919   3.692  4.3771  0.7202  0.1214
 6606SOL     OW21011   7.597   6.074   7.291  0.1991  0.5877 -0.0605
 6606SOL    HW121012   7.664   6.053   7.357 -0.8950 -0.1469  0.8684
 6606SOL    HW221013   7.602   6.169   7.282  0.6022  0.6716  0.8536
 6607SOL     OW21014   5.888   6.080   1.539  0.3713  0.1776 -0.5896
 6607SOL    HW121015   5.929   5.998   1.565  0.3754  0.4900  0.4656
 6607SOL    HW221016   5.795   6.059   1.530  0.3182  0.1328  0.0385
 6608SOL     OW21017   5.810   6.853   5.070  0.1856  0.2703  0.6377
 6608SOL    HW121018   5.873   6.913   5.110  0.2918 -0.5761  1.7908
 6608SOL    HW221019   5.769   6.904   5.000  1.4908  1.1237  0.4673
 6609SOL     OW21020   4.093   0.934   8.355 -0.3492  0.2538  0.0589
 6609SOL    HW121021   4.091   0.982   8.438  0.3869  0.1681  0.1300
 6609SOL    HW221022   4.164   0.872   8.365  0.1336  0.6428 -0.8559
 6610SOL     OW21023   6.584   1.170   8.295  0.0342  0.3230  0.6370
 6610SOL    HW121024   6.669   1.164   8.339  0.0767 -0.7220  0.4376
 6610SOL    HW221025   6.568   1.081   8.262 -0.6662  0.7522 -0.2046
 6611SOL     OW21026   1.683   1.523   6.149  0.2609  0.0279 -0.1232
 6611SOL    HW121027   1.743   1.593   6.123  1.0576 -0.7215 -0.3641
 6611SOL    HW221028   1.603   1.568   6.176  0.9702  1.0581  0.3167
 6612SOL     OW21029   3.754   7.471   7.068 -0.0934 -0.1429 -0.3939
 6612SOL    HW121030   3.824   7.454   7.132 -0.2854 -0.3840 -0.2472
 6612SOL    HW221031   3.741   7.387   7.023 -0.5770 -0.2115 -0.1319
 6613SOL     OW21032   2.977   2.546   4.902  0.3711  0.0487 -0.4532
 6613SOL    HW121033   3.028   2.622   4.873 -1.1412  1.0225 -0.6443
 6613SOL    HW221034   2.936   2.574   4.983  0.6395 -0.9628  0.0503
 6614SOL     OW21035   5.963   1.787   3.719 -0.0769  0.0203 -0.2784
 6614SOL    HW121036   5.916   1.867   3.744 -0.0241 -0.2027  0.5704
 6614SOL    HW221037   6.054   1.803   3.744 -0.2024 -0.5897  0.6338
 6615SOL     OW21038   6.983   4.476   5.471  0.3015  0.6212 -0.5405
 6615SOL    HW121039   7.052   4.542   5.461  0.2838  0.2984 -4.2152
 6615SOL    HW221040   7.028   4.393   5.455 -0.7326  0.3468 -2.2564
 6616SOL     OW21041   3.220   5.627   6.199  0.4231  0.1234 -0.5174
 6616SOL    HW121042   3.212   5.650   6.291 -0.3025  0.6328 -0.7046
 6616SOL    HW221043   3.198   5.533   6.196  0.0890  0.1896 -0.2220
 6617SOL     OW21044   4.364   4.523   2.602  0.0707  0.6216 -0.3658
 6617SOL    HW121045   4.350   4.588   2.671  2.2837  1.1943 -0.3814
 6617SOL    HW221046   4.285   4.470   2.603 -0.5937  1.5412  1.5983
 6618SOL     OW21047   6.367   6.499   3.529  0.0527  0.2042 -0.4544
 6618SOL    HW121048   6.371   6.584   3.573  0.2904  0.3063 -0.6698
 6618SOL    HW221049   6.333   6.439   3.595  1.4737  0.1172  0.2347
 6619SOL     OW21050   3.182   5.071   2.790  0.3433 -0.2971  0.0293
 6619SOL    HW121051   3.201   5.156   2.828  1.0421 -0.5880  0.3532
 6619SOL    HW221052   3.229   5.009   2.845 -1.4161 -1.0515  0.7618
 6620SOL     OW21053   4.540   1.592   6.835  0.5545  0.2955 -0.2727
 6620SOL    HW121054   4.633   1.601   6.856  0.3595  2.5776 -0.1268
 6620SOL    HW221055   4.494   1.620   6.914 -0.3285 -2.0185  0.1141
 6621SOL     OW21056   2.727   8.263   5.247 -0.4404 -0.1853  0.4337
 6621SOL    HW121057   2.665   8.336   5.245  0.7091  1.0075  3.1043
 6621SOL    HW221058   2.790   8.284   5.178 -0.9173  0.5774  0.2082
 6622SOL     OW21059   8.311   6.763   3.515  0.0995  0.2553  0.4277
 6622SOL    HW121060   8.329   6.691   3.454 -0.6296  0.9880 -0.6836
 6622SOL    HW221061   8.218   6.780   3.504  0.7158  3.1639 -1.4270
 6623SOL     OW21062   4.767   7.030   5.528 -0.4278 -0.2933  0.3127
 6623SOL    HW121063   4.828   6.972   5.483 -0.8478 -1.8215  1.6244
 6623SOL    HW221064   4.820   7.075   5.594 -0.3380 -0.0757  0.0947
 6624SOL     OW21065   6.074   3.196   4.004  0.1608 -0.0647  0.3912
 6624SOL    HW121066   6.006   3.134   3.977  1.2069 -1.4493  0.8095
 6624SOL    HW221067   6.084   3.181   4.098  1.7496 -0.6453  0.1558
 6625SOL     OW21068   5.734   0.487   4.583  0.1940 -0.1130 -0.4561
 6625SOL    HW121069   5.686   0.440   4.515  0.6396 -0.4136 -0.5628
 6625SOL    HW221070   5.701   0.577   4.577  0.5885 -0.0175 -1.4071
 6626SOL     OW21071   6.919   4.937   4.172 -0.3566  0.2594 -0.4277
 6626SOL    HW121072   6.925   5.003   4.242 -1.0121 -0.2468  0.1159
 6626SOL    HW221073   6.863   4.869   4.208  1.7335 -1.5028 -0.2517
 6627SOL     OW21074   0.909   0.341   0.571 -0.0951 -0.4056 -0.1206
 6627SOL    HW121075   0.936   0.336   0.663  0.8420 -0.3317 -0.3879
 6627SOL    HW221076   0.886   0.434   0.559 -0.0512 -0.3798 -0.0106
 6628SOL     OW21077   7.160   4.515   2.455  0.3979  0.5329  0.5206
 6628SOL    HW121078   7.073   4.475   2.442  0.2746  0.9481  0.0435
 6628SOL    HW221079   7.145   4.609   2.445  0.7728  0.6657  1.1907
 6629SOL     OW21080   2.485   7.515   3.968  0.4075 -0.3966 -0.1206
 6629SOL    HW121081   2.454   7.549   3.884 -0.3506 -0.4128  0.1470
 6629SOL    HW221082   2.431   7.437   3.984  0.7685 -0.5812  0.2251
 6630SOL     OW21083   4.115   7.981   2.019  0.2856 -0.8815 -0.2990
 6630SOL    HW121084   4.131   7.938   1.935 -1.9623 -2.3938 -0.0375
 6630SOL    HW221085   4.032   7.944   2.050  0.3753  0.6042  1.9775
 6631SOL     OW21086   1.078   7.422   4.425 -0.3807 -0.0344 -0.0544
 6631SOL    HW121087   1.040   7.367   4.494 -3.2126  0.1526 -1.3365
 6631SOL    HW221088   1.081   7.510   4.464  0.2599 -0.3229  0.5837
 6632SOL     OW21089   5.995   1.780   4.155  0.2075 -0.2856 -0.4481
 6632SOL    HW121090   5.970   1.811   4.242  2.0832 -0.9880  0.4063
 6632SOL    HW221091   6.037   1.855   4.113 -0.4476 -0.0294 -0.6660
 6633SOL     OW21092   2.039   5.029   0.040  0.0517 -0.9262  0.4186
 6633SOL    HW121093   2.026   5.026  -0.054 -1.3898 -0.8190  0.5896
 6633SOL    HW221094   2.073   4.943   0.064 -0.0244 -1.1054 -0.1261
 6634SOL     OW21095   5.925   2.419   4.464 -0.6162 -0.1520 -0.2337
 6634SOL    HW121096   6.015   2.398   4.441 -0.0289  0.3348  1.4931
 6634SOL    HW221097   5.877   2.414   4.381  0.8072 -1.3259 -1.0184
 6635SOL     OW21098   3.862   6.036   7.527 -0.6219 -0.4794 -0.0181
 6635SOL    HW121099   3.774   6.046   7.491 -0.8054 -0.7337  0.3589
 6635SOL    HW221100   3.904   5.971   7.471 -0.3276  0.3793 -0.8242
 6636SOL     OW21101   0.023   5.023   4.572 -0.6367 -0.0064  0.1596
 6636SOL    HW121102  -0.022   5.100   4.606 -1.5983 -0.0636 -0.9032
 6636SOL    HW221103   0.000   4.953   4.633 -0.1107  0.4455  0.8918
 6637SOL     OW21104   8.301   4.248   3.931  0.2077  0.5874 -0.5294
 6637SOL    HW121105   8.246   4.232   3.854  0.2813 -2.5203 -0.0615
 6637SOL    HW221106   8.390   4.249   3.896  0.2263 -0.5964 -0.5476
 6638SOL     OW21107   7.287   4.224   7.353 -0.6485  0.0705  0.2691
 6638SOL    HW121108   7.283   4.131   7.378  0.2034 -0.1275 -0.2913
 6638SOL    HW221109   7.261   4.225   7.261  1.1230  0.1307 -0.2648
 6639SOL     OW21110   5.839   0.828   7.717 -0.8951 -0.5327  0.2409
 6639SOL    HW121111   5.811   0.806   7.628 -0.2360  1.2639 -0.4648
 6639SOL    HW221112   5.778   0.896   7.745  0.5719  0.9379  0.0175
 6640SOL     OW21113   4.661   6.563   5.619  0.0560  0.2997  0.9513
 6640SOL    HW121114   4.578   6.535   5.656 -1.3000  0.2318 -1.8978
 6640SOL    HW221115   4.656   6.658   5.616  0.0600  0.2913  0.7042
 6641SOL     OW21116   3.561   6.354   6.729  0.1270 -0.4165  0.1257
 6641SOL    HW121117   3.612   6.287   6.775  0.3971  0.3226  0.9343
 6641SOL    HW221118   3.615   6.433   6.734 -1.0779  0.3907  1.0152
 6642SOL     OW21119   3.149   3.935   1.451 -0.3583  0.0101 -0.1512
 6642SOL    HW121120   3.208   3.887   1.510 -0.5562  0.8911  0.7901
 6642SOL    HW221121   3.072   3.880   1.443  0.6174 -1.2346 -1.5196
 6643SOL     OW21122   3.285   1.061   7.223  0.5544  0.7731 -0.5430
 6643SOL    HW121123   3.267   1.032   7.312 -0.0787 -1.3117 -1.2855
 6643SOL    HW221124   3.375   1.094   7.225  0.1800  1.7732  1.0696
 6644SOL     OW21125   1.917   2.372   7.933  0.5769  0.1557  0.3279
 6644SOL    HW121126   1.846   2.318   7.897 -0.5230  0.4625  1.9110
 6644SOL    HW221127   1.943   2.327   8.013  1.9594  0.2350 -0.0591
 6645SOL     OW21128   8.434   5.456   5.935 -0.5611  0.2758 -0.3633
 6645SOL    HW121129   8.466   5.536   5.893  0.3488  1.1182  1.8335
 6645SOL    HW221130   8.488   5.387   5.898  2.5683  1.4070  1.6916
 6646SOL     OW21131   7.389   1.677   8.387 -0.6762  0.5815  0.3727
 6646SOL    HW121132   7.449   1.607   8.412 -0.1137  0.9492  0.0587
 6646SOL    HW221133   7.383   1.733   8.465 -0.1136  0.8930  0.1954
 6647SOL     OW21134   0.610   1.847   7.862 -0.6477  0.2861 -0.5383
 6647SOL    HW121135   0.673   1.824   7.793 -1.0777 -0.6726 -0.6292
 6647SOL    HW221136   0.525   1.823   7.825 -0.8495 -0.6282  0.4685
 6648SOL     OW21137   3.153   3.929   3.977 -0.1044  0.1319  0.0455
 6648SOL    HW121138   3.175   3.952   3.886 -0.5746  1.1995  0.1883
 6648SOL    HW221139   3.136   3.835   3.974  1.5250 -0.1702 -0.6392
 6649SOL     OW21140   3.044   3.033   8.573 -0.7310  0.4950  0.1164
 6649SOL    HW121141   2.985   2.959   8.587 -3.7955  2.1392 -2.8169
 6649SOL    HW221142   3.019   3.096   8.640 -0.1446  0.0648  0.7604
 6650SOL     OW21143   1.987   4.514   2.446 -0.0442  0.3732 -0.8492
 6650SOL    HW121144   2.025   4.586   2.497 -1.1469  0.6136 -0.3299
 6650SOL    HW221145   2.039   4.437   2.469 -0.7395  0.3981  0.9582
 6651SOL     OW21146   5.915   4.677   8.188 -0.0594 -0.9143  0.3809
 6651SOL    HW121147   5.880   4.739   8.124 -0.0176 -0.7855  0.4807
 6651SOL    HW221148   5.935   4.599   8.138  1.0755 -0.4158  0.0076
 6652SOL     OW21149   6.404   1.258   6.576 -0.0664  0.1405  0.5170
 6652SOL    HW121150   6.418   1.302   6.660  0.2077  0.6536  0.2018
 6652SOL    HW221151   6.456   1.308   6.513 -0.7731  0.1471 -0.0767
 6653SOL     OW21152   2.538   2.890   7.850 -0.7060 -0.8114  0.3471
 6653SOL    HW121153   2.447   2.908   7.876 -1.6900 -4.1370 -0.2591
 6653SOL    HW221154   2.580   2.861   7.931 -0.1613  0.6286  0.6052
 6654SOL     OW21155   7.470   5.053   1.430  0.5480  0.0258 -0.1158
 6654SOL    HW121156   7.378   5.080   1.424  0.8610  1.1518 -0.1046
 6654SOL    HW221157   7.519   5.130   1.400  1.5992  0.5626  2.6549
 6655SOL     OW21158   6.848   3.928   7.945 -1.2978 -0.3825 -0.1063
 6655SOL    HW121159   6.836   3.834   7.945 -2.9864 -0.2132 -1.7617
 6655SOL    HW221160   6.929   3.942   7.896  0.2182 -1.0219  2.0717
 6656SOL     OW21161   0.278   4.570   1.378  0.1975 -0.1168  0.2696
 6656SOL    HW121162   0.290   4.654   1.334  1.2552 -0.5313 -0.2500
 6656SOL    HW221163   0.215   4.523   1.324  0.4446 -0.0909 -0.0382
 6657SOL     OW21164   3.276   1.860   7.006  0.0268  0.4668 -0.3670
 6657SOL    HW121165   3.363   1.826   7.026 -0.6902 -0.4951  1.2794
 6657SOL    HW221166   3.287   1.955   7.003  1.2146  0.3361 -0.6780
 6658SOL     OW21167   8.181   5.065   7.539  0.4779 -0.6766  0.1139
 6658SOL    HW121168   8.222   4.979   7.537  0.8840 -0.4775 -0.3509
 6658SOL    HW221169   8.218   5.111   7.464  1.6000  0.4962  1.3172
 6659SOL     OW21170   2.557   1.057   8.034 -0.1269 -0.5993 -0.0834
 6659SOL    HW121171   2.626   1.109   7.994  0.3524 -0.7342  0.5568
 6659SOL    HW221172   2.482   1.116   8.040 -0.1302 -0.5072 -0.9444
 6660SOL     OW21173   7.641   3.246   2.297 -0.0675  0.7157  0.5864
 6660SOL    HW121174   7.601   3.182   2.357  0.1555  1.0193  1.0697
 6660SOL    HW221175   7.668   3.318   2.354  0.9099  0.6420  0.2390
 6661SOL     OW21176   2.467   1.822   3.177 -0.1035  0.2155 -0.0744
 6661SOL    HW121177   2.472   1.828   3.272 -0.4579  0.3864 -0.0637
 6661SOL    HW221178   2.547   1.863   3.145 -1.0241  2.2496  0.0851
 6662SOL     OW21179   3.207   6.211   3.580  1.2329  0.1688  0.2010
 6662SOL    HW121180   3.205   6.237   3.488  1.9950  0.1927  0.1797
 6662SOL    HW221181   3.227   6.292   3.628  0.9170  0.1430  0.3800
 6663SOL     OW21182   0.285   5.798   3.765  0.6360  0.0155 -0.1067
 6663SOL    HW121183   0.213   5.763   3.816  1.4802 -1.5515  0.0712
 6663SOL    HW221184   0.340   5.844   3.829  0.0846  0.7506 -0.1545
 6664SOL     OW21185   5.645   1.966   6.615  0.0669  0.5198 -0.3417
 6664SOL    HW121186   5.717   2.028   6.615 -2.0415  3.1755  0.6527
 6664SOL    HW221187   5.618   1.959   6.706 -1.9567  0.9504 -0.8535
 6665SOL     OW21188   4.876   3.342   3.576  0.0518 -0.1055  0.0562
 6665SOL    HW121189   4.960   3.350   3.621 -0.8669  2.9533  1.4752
 6665SOL    HW221190   4.900   3.320   3.485  2.3901  0.8360  0.3661
 6666SOL     OW21191   4.145   5.023   2.760  0.1184  0.0559 -0.4357
 6666SOL    HW121192   4.064   4.975   2.778  1.9543 -2.5913  1.5163
 6666SOL    HW221193   4.137   5.105   2.810 -0.8323 -0.7838  0.8472
 6667SOL     OW21194   1.826   0.962   7.787 -0.4276 -0.2465 -0.4529
 6667SOL    HW121195   1.879   0.967   7.867 -0.5828 -2.6983 -0.1386
 6667SOL    HW221196   1.847   1.044   7.740  1.9106 -0.0857  0.7057
 6668SOL     OW21197   2.605   1.338   5.264  0.4109 -0.1917 -0.7252
 6668SOL    HW121198   2.559   1.285   5.329  0.5229 -0.5733 -0.9511
 6668SOL    HW221199   2.571   1.307   5.180  1.2899 -0.6829 -0.9080
 6669SOL     OW21200   3.140   7.354   1.641 -0.2683 -0.5256 -0.0256
 6669SOL    HW121201   3.054   7.344   1.681  0.0607 -1.6057  0.4319
 6669SOL    HW221202   3.136   7.298   1.563  0.0412 -0.6066  0.0190
 6670SOL     OW21203   5.160   7.689   8.550  0.6270  0.1020 -0.4554
 6670SOL    HW121204   5.180   7.751   8.620  0.0967  0.7322 -0.8529
 6670SOL    HW221205   5.245   7.653   8.526  1.1881  1.8272 -1.2736
 6671SOL     OW21206   7.845   4.102   7.661 -0.1234  0.4668 -0.4823
 6671SOL    HW121207   7.825   4.052   7.581  0.1253 -1.4111  0.5797
 6671SOL    HW221208   7.761   4.142   7.685 -0.2937  0.7219 -1.4485
 6672SOL     OW21209   1.149   6.092   8.183  0.0244  0.4185  0.0340
 6672SOL    HW121210   1.054   6.104   8.193  0.1463  0.4429  1.2277
 6672SOL    HW221211   1.161   5.997   8.185  0.1027  0.4399  0.6676
 6673SOL     OW21212   7.299   5.941   0.915  0.3826  0.2773 -0.0574
 6673SOL    HW121213   7.241   6.016   0.900 -2.6958 -1.1182  3.3566
 6673SOL    HW221214   7.371   5.976   0.967  0.7786  1.3812 -1.2856
 6674SOL     OW21215   4.420   8.603   1.314 -0.4120 -0.0649  0.0111
 6674SOL    HW121216   4.362   8.676   1.336  0.0886  0.3737 -0.0985
 6674SOL    HW221217   4.507   8.635   1.336 -0.1381 -0.4504 -0.4964
 6675SOL     OW21218   3.153   7.578   5.928  0.0651  0.4920 -0.6032
 6675SOL    HW121219   3.097   7.512   5.886  0.4017 -0.8288  0.9465
 6675SOL    HW221220   3.172   7.641   5.858  1.3493 -2.0679 -2.7577
 6676SOL     OW21221   5.618   3.006   5.679 -0.0275  0.2770 -0.0712
 6676SOL    HW121222   5.633   2.917   5.712 -0.4684 -0.4988 -1.8038
 6676SOL    HW221223   5.666   3.063   5.739  0.4364 -1.1519  0.9678
 6677SOL     OW21224   5.199   1.657   2.528  0.0832  0.1546 -0.1018
 6677SOL    HW121225   5.283   1.666   2.482  0.6214  0.9301  0.9652
 6677SOL    HW221226   5.143   1.724   2.490 -0.0484 -0.3482 -0.8022
 6678SOL     OW21227   2.169   7.000   4.861  0.6094 -0.3512  0.3817
 6678SOL    HW121228   2.111   6.984   4.787  0.3237 -1.9078  0.9168
 6678SOL    HW221229   2.119   7.058   4.919  1.1574  1.6042 -0.9744
 6679SOL     OW21230   0.247   1.823   3.364  0.2456 -0.5932 -0.0496
 6679SOL    HW121231   0.306   1.823   3.439  1.9019  2.0563 -1.1891
 6679SOL    HW221232   0.286   1.760   3.303  0.0691 -1.2046  0.4593
 6680SOL     OW21233   5.733   4.567   3.597  0.4291  0.2591  0.6598
 6680SOL    HW121234   5.762   4.616   3.520 -0.0438  0.3450  0.5350
 6680SOL    HW221235   5.719   4.478   3.565 -0.0985  0.3714  0.5645
 6681SOL     OW21236   0.346   6.352   1.221 -0.3480 -0.6262  0.2250
 6681SOL    HW121237   0.292   6.356   1.300 -0.6539  1.5957 -0.0276
 6681SOL    HW221238   0.398   6.432   1.223  0.6055 -1.1728 -1.1734
 6682SOL     OW21239   1.202   7.666   4.110 -0.0340 -0.4508 -0.7766
 6682SOL    HW121240   1.122   7.613   4.109  0.1555 -0.8335  1.2783
 6682SOL    HW221241   1.264   7.615   4.161  1.2272  0.2949 -1.5199
 6683SOL     OW21242   1.056   2.093   4.878  0.5812 -0.5523 -0.1804
 6683SOL    HW121243   1.094   2.178   4.854  0.1938 -0.1223  0.6535
 6683SOL    HW221244   0.982   2.082   4.818  0.2110  0.0477  0.1474
 6684SOL     OW21245   1.183   3.771   3.913  0.3847  0.2117  0.2387
 6684SOL    HW121246   1.129   3.715   3.857  0.9737 -0.4449  0.3188
 6684SOL    HW221247   1.187   3.725   3.997 -0.0994  0.9621  0.6834
 6685SOL     OW21248   3.507   1.259   6.354 -0.0792 -0.6575  0.6508
 6685SOL    HW121249   3.428   1.289   6.309 -0.9406 -0.2686  2.3372
 6685SOL    HW221250   3.556   1.339   6.372  0.8296 -0.9147 -0.5613
 6686SOL     OW21251   0.653   3.942   0.649 -0.3347  0.0990 -0.2426
 6686SOL    HW121252   0.570   3.970   0.686 -0.8938 -1.0376 -0.6043
 6686SOL    HW221253   0.702   3.907   0.723 -2.0896 -3.7086 -0.6883
 6687SOL     OW21254   7.973   0.714   2.222  0.4205  0.1684  0.3335
 6687SOL    HW121255   8.048   0.660   2.200 -0.4175 -1.1708  0.6717
 6687SOL    HW221256   7.957   0.767   2.144  0.8916 -0.5028 -0.2208
 6688SOL     OW21257   5.608   7.587   3.465 -0.6825  0.6828 -0.1004
 6688SOL    HW121258   5.642   7.624   3.383 -2.7092  3.0368  0.0080
 6688SOL    HW221259   5.603   7.493   3.448  1.5476  0.7698 -1.6471
 6689SOL     OW21260   1.561   7.772   7.748  0.2978 -0.6392  0.6853
 6689SOL    HW121261   1.623   7.737   7.684  0.6736  1.3448 -0.0822
 6689SOL    HW221262   1.506   7.832   7.699 -0.5744 -0.4075  1.8855
 6690SOL     OW21263   3.149   3.173   5.865  0.1851  0.1229 -0.1473
 6690SOL    HW121264   3.240   3.148   5.884  0.1556  0.6709  0.7810
 6690SOL    HW221265   3.154   3.222   5.783  0.8040  0.5968  0.1669
 6691SOL     OW21266   3.742   2.316   8.586  0.4652 -0.0572  0.4769
 6691SOL    HW121267   3.762   2.409   8.575  0.9169 -0.2053 -0.0128
 6691SOL    HW221268   3.668   2.300   8.528  1.1465 -0.2533 -0.3644
 6692SOL     OW21269   3.145   8.499   1.212  0.2548 -0.0314 -0.3896
 6692SOL    HW121270   3.199   8.420   1.211  1.5541  0.7611 -2.9886
 6692SOL    HW221271   3.208   8.571   1.215 -0.8268  0.9286  0.1479
 6693SOL     OW21272   0.186   0.486   1.531  0.1346 -0.2642 -0.3427
 6693SOL    HW121273   0.162   0.553   1.595  0.3442 -0.3994 -0.1238
 6693SOL    HW221274   0.275   0.460   1.554  0.3362 -0.0842 -0.8846
 6694SOL     OW21275   0.571   2.362   6.065 -0.1985 -0.2127 -0.4600
 6694SOL    HW121276   0.642   2.426   6.068  0.7813 -1.2061 -1.2284
 6694SOL    HW221277   0.528   2.368   6.150  1.2396 -0.0472  0.2737
 6695SOL     OW21278   0.544   5.901   8.199  0.0557  0.3676  0.4692
 6695SOL    HW121279   0.587   5.986   8.203 -0.5570  0.6469  1.4090
 6695SOL    HW221280   0.611   5.838   8.224 -0.0538  0.7978  1.9182
 6696SOL     OW21281   6.710   0.717   6.943  0.7636 -0.4122 -0.6719
 6696SOL    HW121282   6.660   0.789   6.904  2.4396 -0.2844 -2.7745
 6696SOL    HW221283   6.666   0.638   6.912  0.4647 -0.3011 -0.5327
 6697SOL     OW21284   1.852   4.675   2.743 -0.1698  0.3532 -0.4146
 6697SOL    HW121285   1.921   4.682   2.677  0.5968  1.0882  0.4165
 6697SOL    HW221286   1.773   4.652   2.695  0.5403  0.0834 -1.4676
 6698SOL     OW21287   1.108   2.885   0.016  0.6841  0.4780 -0.3158
 6698SOL    HW121288   1.170   2.958   0.003 -0.3544  1.3290 -0.6046
 6698SOL    HW221289   1.130   2.851   0.103  1.2163  1.1107 -0.1928
 6699SOL     OW21290   1.197   3.743   2.531  0.3898  0.3659 -0.2335
 6699SOL    HW121291   1.163   3.831   2.548 -0.5178  0.6231 -2.9673
 6699SOL    HW221292   1.165   3.691   2.605 -2.1540  1.5853 -0.3611
 6700SOL     OW21293   5.779   7.606   2.921 -0.3032  0.3455  0.0523
 6700SOL    HW121294   5.713   7.673   2.939 -0.3922 -0.1817  1.8817
 6700SOL    HW221295   5.833   7.605   3.000  0.6144 -0.6970 -0.5686
 6701SOL     OW21296   6.607   2.188   4.176  0.2506 -0.1048 -0.0173
 6701SOL    HW121297   6.614   2.270   4.127 -0.9176 -0.1283 -0.2483
 6701SOL    HW221298   6.689   2.142   4.157 -0.1299 -0.0722 -1.9179
 6702SOL     OW21299   1.045   6.391   8.335 -0.8449 -0.5169 -0.2177
 6702SOL    HW121300   1.027   6.444   8.412 -1.3117 -0.4245 -0.3829
 6702SOL    HW221301   1.035   6.301   8.365 -1.3011 -0.4738 -0.2323
 6703SOL     OW21302   7.890   6.845   7.524 -0.2558 -0.3915 -0.3902
 6703SOL    HW121303   7.950   6.790   7.574 -1.0507 -0.2346  0.7921
 6703SOL    HW221304   7.803   6.812   7.548 -0.7597  1.4663  0.4957
 6704SOL     OW21305   5.842   7.317   5.867  0.0726  0.4486 -0.1656
 6704SOL    HW121306   5.820   7.371   5.942  0.3946 -0.6929  0.7878
 6704SOL    HW221307   5.836   7.376   5.792  0.4182  1.7943  0.8249
 6705SOL     OW21308   6.823   1.211   8.409  0.2940  0.3742 -0.2654
 6705SOL    HW121309   6.908   1.173   8.384  1.4255  2.7069 -0.2684
 6705SOL    HW221310   6.837   1.305   8.402 -2.3496  0.8227 -0.2842
 6706SOL     OW21311   6.186   5.804   4.377 -0.4851 -0.0615 -0.1240
 6706SOL    HW121312   6.097   5.772   4.365  0.3036 -1.6634 -2.5125
 6706SOL    HW221313   6.185   5.894   4.344 -1.3000  0.0899  0.3080
 6707SOL     OW21314   2.621   6.103   4.144 -0.1943 -0.2413 -0.2538
 6707SOL    HW121315   2.593   6.179   4.195 -1.3171 -0.9162  0.1897
 6707SOL    HW221316   2.713   6.119   4.125 -0.5967  1.6481 -0.9217
 6708SOL     OW21317   7.599   5.615   5.010  0.1085  0.4248  0.0095
 6708SOL    HW121318   7.586   5.640   4.919 -1.6011  0.8960  0.3613
 6708SOL    HW221319   7.692   5.589   5.014  0.6630  2.0056 -1.4559
 6709SOL     OW21320   5.125   4.288   4.908  0.3247 -0.3573  0.0169
 6709SOL    HW121321   5.172   4.360   4.951  0.3611 -0.5738  0.3401
 6709SOL    HW221322   5.194   4.233   4.871  0.3480 -0.8684  0.7993
 6710SOL     OW21323   4.912   2.198   3.060 -0.1025  0.3167  0.1862
 6710SOL    HW121324   4.838   2.246   3.023  1.9635  2.1413 -1.8645
 6710SOL    HW221325   4.942   2.253   3.133 -0.6031 -0.3369  0.9072
 6711SOL     OW21326   8.392   8.483   2.685 -0.4533  0.1821 -0.6733
 6711SOL    HW121327   8.328   8.424   2.723 -0.0927  0.2299  0.0195
 6711SOL    HW221328   8.477   8.442   2.702 -0.3113 -0.1263 -2.0078
 6712SOL     OW21329   3.644   4.881   5.115 -0.4449 -0.0957 -0.0598
 6712SOL    HW121330   3.567   4.831   5.144  0.4707 -2.9622 -2.1117
 6712SOL    HW221331   3.611   4.935   5.043 -0.8332 -0.0068  0.1765
 6713SOL     OW21332   3.805   5.659   7.593  0.3060 -0.1444 -0.3458
 6713SOL    HW121333   3.768   5.616   7.516 -0.4305  1.4055 -0.9004
 6713SOL    HW221334   3.892   5.621   7.602 -0.3130 -1.7384 -0.7777
 6714SOL     OW21335   6.774   4.185   5.191 -0.2112  0.1002 -0.4453
 6714SOL    HW121336   6.825   4.264   5.204 -1.2521  0.5174  1.4613
 6714SOL    HW221337   6.836   4.122   5.154  1.1336  1.1904 -0.1267
 6715SOL     OW21338   6.456   2.432   4.905 -0.1027 -0.3950 -0.2084
 6715SOL    HW121339   6.439   2.490   4.831  3.7947  0.2820 -0.7721
 6715SOL    HW221340   6.417   2.476   4.980  0.6214  1.7456 -1.0262
 6716SOL     OW21341   8.246   2.461   3.667 -0.5128  0.3599  0.0507
 6716SOL    HW121342   8.281   2.393   3.725 -0.3826 -0.6008 -1.1302
 6716SOL    HW221343   8.266   2.543   3.713  1.2432 -0.2659  0.5105
 6717SOL     OW21344   0.850   7.893   6.250  0.4784 -0.0672  0.6493
 6717SOL    HW121345   0.940   7.891   6.219  0.7532  1.6157  1.2091
 6717SOL    HW221346   0.843   7.976   6.298 -1.6029  0.2883 -0.1343
 6718SOL     OW21347   7.953   8.165   1.603 -0.5314  0.2026  0.2184
 6718SOL    HW121348   8.018   8.236   1.603  0.9113 -1.0552 -0.5365
 6718SOL    HW221349   7.881   8.199   1.550  1.9246 -0.2804 -3.9396
 6719SOL     OW21350   0.193   7.108   7.973 -0.0614  0.5040  0.7619
 6719SOL    HW121351   0.189   7.071   8.061 -2.1375  0.1891  0.5799
 6719SOL    HW221352   0.150   7.193   7.980  0.8035  1.0030  0.2666
 6720SOL     OW21353   1.843   1.279   0.323 -0.0297 -0.1111 -0.1592
 6720SOL    HW121354   1.841   1.184   0.318 -1.2430 -0.0504 -1.8628
 6720SOL    HW221355   1.918   1.299   0.379 -0.5700 -2.0659  1.3728
 6721SOL     OW21356   2.214   0.509   0.820 -0.0884  0.0559 -0.3854
 6721SOL    HW121357   2.232   0.505   0.914 -2.1804  1.0753  0.1207
 6721SOL    HW221358   2.145   0.444   0.806  0.8080 -0.7074 -1.4076
 6722SOL     OW21359   5.975   2.374   8.290 -0.0435 -0.2983  0.1033
 6722SOL    HW121360   5.952   2.281   8.292  1.9560 -0.8320  1.3649
 6722SOL    HW221361   6.049   2.382   8.350 -1.8611  2.6037  2.2476
 6723SOL     OW21362   2.408   4.184   7.068  0.2629 -0.0588 -0.2422
 6723SOL    HW121363   2.495   4.186   7.029  0.6406  2.9321  0.4657
 6723SOL    HW221364   2.382   4.276   7.074 -3.2496 -0.8302 -0.9730
 6724SOL     OW21365   1.751   6.531   4.031  0.0232 -0.9461  0.6451
 6724SOL    HW121366   1.708   6.469   4.090 -1.6850  0.2075  0.6671
 6724SOL    HW221367   1.802   6.588   4.089 -2.2849  0.6934  1.1893
 6725SOL     OW21368   3.789   5.533   6.497 -0.0781  0.1049 -0.3831
 6725SOL    HW121369   3.707   5.501   6.459  0.7291 -2.3703 -0.2372
 6725SOL    HW221370   3.858   5.486   6.449  1.2168  1.3193  0.2113
 6726SOL     OW21371   7.532   2.538   0.477  0.1899  0.5646 -0.2100
 6726SOL    HW121372   7.578   2.567   0.399  0.4274  1.0965  0.1246
 6726SOL    HW221373   7.443   2.572   0.467 -0.0257 -0.1212 -0.6654
 6727SOL     OW21374   3.350   5.302   1.921 -0.1960  0.0386 -0.7616
 6727SOL    HW121375   3.435   5.298   1.877 -1.1392 -1.1972 -2.5779
 6727SOL    HW221376   3.340   5.217   1.963 -0.1869  0.4951  0.1995
 6728SOL     OW21377   2.119   7.113   1.759  0.1589  0.0034  0.4997
 6728SOL    HW121378   2.065   7.138   1.834  1.8837  1.5343  1.3109
 6728SOL    HW221379   2.068   7.140   1.683 -0.9219 -0.1073  1.1534
 6729SOL     OW21380   1.190   7.925   1.932  0.3792  0.5435  0.1489
 6729SOL    HW121381   1.113   7.951   1.983 -0.5480 -2.4342  0.4625
 6729SOL    HW221382   1.197   7.991   1.863 -1.8682  1.4246  0.6920
 6730SOL     OW21383   0.254   2.783   3.269  0.4282 -0.0706 -0.5792
 6730SOL    HW121384   0.244   2.721   3.197 -0.3102 -0.6674  0.0258
 6730SOL    HW221385   0.168   2.784   3.313  0.7408  0.5909  0.0479
 6731SOL     OW21386   5.458   6.354   8.268  0.7680  0.0209  0.1112
 6731SOL    HW121387   5.403   6.283   8.234 -0.2882  0.4475  0.9095
 6731SOL    HW221388   5.547   6.327   8.244  0.2038 -0.4299 -1.6538
 6732SOL     OW21389   2.776   1.658   7.960 -0.3160 -0.4706 -0.7011
 6732SOL    HW121390   2.856   1.643   7.910 -0.4230 -0.8357 -0.7607
 6732SOL    HW221391   2.799   1.728   8.021 -0.8368  1.7271 -2.8491
 6733SOL     OW21392   6.077   7.020   6.464 -0.2754  0.8231  0.0404
 6733SOL    HW121393   6.036   7.069   6.393  0.4277  0.2232 -0.8109
 6733SOL    HW221394   6.030   7.047   6.542 -1.0422  1.5397 -0.6432
 6734SOL     OW21395   3.884   4.939   2.793 -0.8338  0.2180  0.3811
 6734SOL    HW121396   3.908   4.925   2.884  2.0047 -0.4281 -0.3779
 6734SOL    HW221397   3.883   5.035   2.783  0.5316  0.2851  0.7213
 6735SOL     OW21398   1.451   4.080   4.252 -0.4982 -0.0653  0.4600
 6735SOL    HW121399   1.481   4.049   4.166 -1.7613 -2.3643  0.7917
 6735SOL    HW221400   1.367   4.122   4.235 -0.5072 -0.0611  0.5138
 6736SOL     OW21401   2.972   2.206   5.717  0.0462 -0.0545  0.1955
 6736SOL    HW121402   2.936   2.132   5.766 -0.2621 -1.1211 -1.5755
 6736SOL    HW221403   3.067   2.200   5.730  0.0863 -1.2362 -0.5497
 6737SOL     OW21404   1.620   1.637   0.694 -0.0458  0.2781 -0.2236
 6737SOL    HW121405   1.667   1.677   0.767  0.3439 -0.5541 -0.0043
 6737SOL    HW221406   1.649   1.686   0.617  1.1299 -0.1615 -0.0819
 6738SOL     OW21407   8.056   3.724   7.367 -0.6418 -0.2404 -0.4372
 6738SOL    HW121408   8.075   3.672   7.289 -0.4417 -1.6343  0.5051
 6738SOL    HW221409   8.051   3.660   7.438 -0.4985  1.0265  0.7584
 6739SOL     OW21410   7.477   7.110   1.984  0.2440 -0.1984  0.1552
 6739SOL    HW121411   7.538   7.138   1.916  0.0596  2.5057  0.9862
 6739SOL    HW221412   7.529   7.105   2.064 -0.3212  0.8111  0.6102
 6740SOL     OW21413   8.516   7.736   0.476 -0.1126 -0.5822 -0.0455
 6740SOL    HW121414   8.607   7.749   0.448  0.0634  0.5182  0.9909
 6740SOL    HW221415   8.512   7.773   0.564 -1.8570  0.4646 -0.5230
 6741SOL     OW21416   6.827   7.130   3.662 -0.0481 -0.1406 -0.0716
 6741SOL    HW121417   6.788   7.160   3.580  0.2508  2.2446  0.5875
 6741SOL    HW221418   6.904   7.185   3.673  2.1094 -2.9234  0.0042
 6742SOL     OW21419   8.515   2.304   3.664  0.1538  0.1294  0.5412
 6742SOL    HW121420   8.565   2.269   3.590 -0.2339  1.1951 -0.2556
 6742SOL    HW221421   8.546   2.394   3.673  0.3026 -0.0331  1.7932
 6743SOL     OW21422   5.893   1.023   1.228 -0.1450 -0.4790 -0.5555
 6743SOL    HW121423   5.907   0.932   1.202  4.2798 -0.7648  1.9071
 6743SOL    HW221424   5.959   1.072   1.179 -2.1143  1.4638 -1.4580
 6744SOL     OW21425   5.205   6.708   3.038  0.3329 -0.4450  0.2272
 6744SOL    HW121426   5.144   6.636   3.054  2.1630 -2.6577 -1.8397
 6744SOL    HW221427   5.263   6.709   3.114 -1.2605  0.6487  1.4775
 6745SOL     OW21428   5.260   5.127   6.855  0.3601  0.3311  0.7026
 6745SOL    HW121429   5.216   5.143   6.771  0.9435  2.1021  0.6978
 6745SOL    HW221430   5.189   5.122   6.919 -0.0183  0.2596  0.2815
 6746SOL     OW21431   7.118   1.316   7.318  0.5253  0.1277  0.2242
 6746SOL    HW121432   7.051   1.366   7.273  0.3439 -1.2817 -1.1474
 6746SOL    HW221433   7.077   1.289   7.400  0.2567  1.2328  0.4715
 6747SOL     OW21434   1.910   5.895   0.993  0.2405 -0.8123 -0.0850
 6747SOL    HW121435   1.832   5.950   1.001  0.9362  0.4003 -1.2536
 6747SOL    HW221436   1.883   5.825   0.934 -0.5882 -1.6681  1.2449
 6748SOL     OW21437   6.543   2.247   2.907 -0.2019 -0.0695 -0.2684
 6748SOL    HW121438   6.560   2.334   2.944 -1.1132  0.2027 -0.4573
 6748SOL    HW221439   6.471   2.261   2.846 -2.0264 -1.3509  1.4437
 6749SOL     OW21440   4.879   4.091   5.427  0.2598 -0.2358 -0.2929
 6749SOL    HW121441   4.918   4.082   5.340  1.7479  1.4562  0.1285
 6749SOL    HW221442   4.874   4.002   5.461  0.9811 -0.7817 -1.5503
 6750SOL     OW21443   4.943   2.370   2.769 -0.1269 -0.0481 -0.9205
 6750SOL    HW121444   4.863   2.359   2.820 -0.5977  0.3141 -1.5720
 6750SOL    HW221445   4.973   2.280   2.751 -0.4985 -0.1859 -0.8482
 6751SOL     OW21446   3.208   7.928   3.375  0.1598  0.0349  0.0569
 6751SOL    HW121447   3.116   7.902   3.370  0.4637 -1.1202  0.1234
 6751SOL    HW221448   3.248   7.862   3.432  0.8319  1.1179  0.8694
 6752SOL     OW21449   0.764   7.455   7.888 -0.4756  0.4511 -0.6705
 6752SOL    HW121450   0.770   7.477   7.795 -1.5456  2.1030 -0.3887
 6752SOL    HW221451   0.850   7.478   7.924  0.2202 -0.9581 -1.3686
 6753SOL     OW21452   4.630   4.178   4.877  0.1558  0.5890  0.0924
 6753SOL    HW121453   4.704   4.188   4.818  0.0095  0.4742 -0.1145
 6753SOL    HW221454   4.664   4.125   4.949  0.1702  0.1850 -0.2010
 6754SOL     OW21455   5.054   4.017   7.036  0.0943 -0.6190 -0.3274
 6754SOL    HW121456   5.133   4.068   7.054  0.2606 -0.4239 -1.5299
 6754SOL    HW221457   5.053   3.950   7.104  0.1284  0.6683  1.0006
 6755SOL     OW21458   5.415   3.109   5.547  0.0692 -0.1391  0.0614
 6755SOL    HW121459   5.364   3.162   5.608  1.1426  0.6270  0.3344
 6755SOL    HW221460   5.472   3.056   5.603  0.0057 -0.5318 -0.2425
 6756SOL     OW21461   2.444   1.130   2.051  0.1623  0.0311 -0.5245
 6756SOL    HW121462   2.445   1.132   2.147 -0.1574 -2.0730 -0.4137
 6756SOL    HW221463   2.370   1.185   2.026 -2.3531 -2.4913  0.7052
 6757SOL     OW21464   6.511   0.743   7.158 -0.1475 -0.0921 -0.2430
 6757SOL    HW121465   6.508   0.716   7.066  1.4929  0.8225 -0.6099
 6757SOL    HW221466   6.532   0.836   7.154  1.3868 -0.3425  1.0706
 6758SOL     OW21467   3.369   1.428   1.275 -0.2670 -0.1665  0.3137
 6758SOL    HW121468   3.396   1.463   1.360  2.3255 -1.6254  0.1853
 6758SOL    HW221469   3.286   1.383   1.293 -0.7706  1.1889  1.6128
 6759SOL     OW21470   5.325   2.874   3.234  0.3135 -0.3902  0.1960
 6759SOL    HW121471   5.367   2.823   3.304 -0.2575 -0.8824  0.1882
 6759SOL    HW221472   5.233   2.846   3.236  0.3403 -0.5987 -0.9237
 6760SOL     OW21473   6.068   6.188   5.293  0.0596  0.3174  0.0342
 6760SOL    HW121474   5.976   6.181   5.268  0.4555 -1.9632 -1.1357
 6760SOL    HW221475   6.116   6.162   5.214  1.7033  1.2321  0.6895
 6761SOL     OW21476   6.676   4.319   6.823 -0.1837  0.4893 -0.3569
 6761SOL    HW121477   6.761   4.304   6.781  0.2515 -0.6941  0.8983
 6761SOL    HW221478   6.689   4.292   6.914 -1.7921  0.6977 -0.0420
 6762SOL     OW21479   2.893   1.484   8.342 -0.1315  0.1584 -0.6021
 6762SOL    HW121480   2.876   1.577   8.356  2.1077  0.4843  0.5371
 6762SOL    HW221481   2.855   1.441   8.419 -1.6246  0.0293 -1.3813
 6763SOL     OW21482   4.791   8.539   3.337 -0.1872  0.4212 -0.4086
 6763SOL    HW121483   4.808   8.520   3.429  0.0448  2.3580 -0.0262
 6763SOL    HW221484   4.728   8.611   3.337 -0.0776  0.5553 -1.7624
 6764SOL     OW21485   8.601   3.418   8.305  0.2689  0.4032 -0.2308
 6764SOL    HW121486   8.648   3.497   8.278 -0.3940  0.3995 -1.4851
 6764SOL    HW221487   8.565   3.383   8.223 -1.4345  0.1072  0.6060
 6765SOL     OW21488   5.445   5.637   0.342 -0.0143 -0.4687 -0.6328
 6765SOL    HW121489   5.375   5.701   0.331 -0.2588 -0.7038 -0.4547
 6765SOL    HW221490   5.411   5.557   0.304 -0.0823 -0.7448 -0.0088
 6766SOL     OW21491   0.669   2.436   2.081 -0.5183 -0.0138  0.3469
 6766SOL    HW121492   0.646   2.491   2.006  1.0155 -0.6768 -0.6757
 6766SOL    HW221493   0.655   2.347   2.049  2.1253 -0.3916  0.0712
 6767SOL     OW21494   8.361   4.031   4.579 -0.1613 -0.2031  0.5983
 6767SOL    HW121495   8.372   3.944   4.541  0.4057 -0.3516  1.0942
 6767SOL    HW221496   8.274   4.059   4.550 -0.2862 -0.8695  0.3139
 6768SOL     OW21497   6.750   4.287   5.925 -0.1495 -0.1257  0.1509
 6768SOL    HW121498   6.836   4.295   5.883 -0.3190 -1.1744 -0.4174
 6768SOL    HW221499   6.720   4.378   5.933  1.7562  0.4345  1.9920
 6769SOL     OW21500   3.129   6.012   5.997 -0.0986 -0.4228 -0.2529
 6769SOL    HW121501   3.191   5.989   5.927 -0.8232 -0.0560 -1.0234
 6769SOL    HW221502   3.072   6.078   5.958  0.0350  0.4353  0.9678
 6770SOL     OW21503   2.601   7.625   4.790 -0.0663  0.2254  0.2427
 6770SOL    HW121504   2.609   7.539   4.749 -0.7158 -0.5610  1.7137
 6770SOL    HW221505   2.648   7.684   4.731  1.4869 -1.3340 -0.1512
 6771SOL     OW21506   1.546   0.032   3.648 -0.2438  0.1538 -0.6750
 6771SOL    HW121507   1.475   0.018   3.585 -0.2463 -0.0068 -0.6362
 6771SOL    HW221508   1.505   0.014   3.733 -0.1374  0.0007 -0.6580
 6772SOL     OW21509   8.238   0.975   2.451  0.0106  0.2947  0.3351
 6772SOL    HW121510   8.160   0.920   2.447  0.1699  0.0371  0.7097
 6772SOL    HW221511   8.310   0.914   2.434  0.1414  0.5090  0.1150
 6773SOL     OW21512   7.672   5.096   3.417  0.4140  0.0306  0.1961
 6773SOL    HW121513   7.751   5.112   3.470  1.6687 -0.4817 -1.4133
 6773SOL    HW221514   7.699   5.118   3.327 -1.0019 -1.0394 -0.5303
 6774SOL     OW21515   1.579   2.994   6.247 -0.3271 -0.5390  0.3725
 6774SOL    HW121516   1.499   3.018   6.200  0.4426 -1.9937 -1.8213
 6774SOL    HW221517   1.591   2.901   6.228  1.3391 -0.6075  1.5219
 6775SOL     OW21518   4.118   4.498   1.530 -0.1841 -0.3415  0.5988
 6775SOL    HW121519   4.065   4.501   1.610 -0.9687  0.8566  0.0751
 6775SOL    HW221520   4.148   4.589   1.519 -0.1117 -0.4889 -0.4725
 6776SOL     OW21521   1.328   5.701   0.638 -0.5088  0.3080  0.3387
 6776SOL    HW121522   1.356   5.634   0.576  1.2102  2.1025 -0.9406
 6776SOL    HW221523   1.379   5.684   0.717 -0.1512  0.0429  0.0533
 6777SOL     OW21524   0.935   5.689   0.429 -0.2019  0.2872 -0.1046
 6777SOL    HW121525   1.006   5.651   0.481 -0.4665 -0.1699 -0.0778
 6777SOL    HW221526   0.865   5.624   0.432  0.1617 -0.2359 -1.9043
 6778SOL     OW21527   5.818   3.327   1.355  0.2327 -0.0341  0.2347
 6778SOL    HW121528   5.884   3.378   1.308  0.7922 -0.3752  0.6363
 6778SOL    HW221529   5.860   3.303   1.437 -0.6318  0.3098  0.7997
 6779SOL     OW21530   0.153   7.478   7.812  0.2371  0.4585  0.1060
 6779SOL    HW121531   0.149   7.402   7.871  0.8657  0.4437  0.1402
 6779SOL    HW221532   0.155   7.553   7.870  0.5801  0.4561  0.0999
 6780SOL     OW21533   0.924   6.565   7.814 -0.1321 -0.6172  0.3661
 6780SOL    HW121534   0.963   6.546   7.899 -0.3780 -0.4616  0.5147
 6780SOL    HW221535   0.903   6.658   7.818 -0.4409 -0.6824  0.2534
 6781SOL     OW21536   4.418   0.088   5.070 -0.1456  0.2887  0.0782
 6781SOL    HW121537   4.459   0.077   4.985 -0.1706  1.7767 -0.1440
 6781SOL    HW221538   4.395   0.181   5.075 -1.9872 -0.1501  0.8706
 6782SOL     OW21539   5.622   6.038   8.279  0.0918 -0.5609 -0.3514
 6782SOL    HW121540   5.544   5.998   8.240 -0.6125  0.1362  0.2870
 6782SOL    HW221541   5.668   6.078   8.206  0.3864 -1.8064 -0.8804
 6783SOL     OW21542   0.954   8.205   8.425 -0.3740 -0.4289 -0.4622
 6783SOL    HW121543   0.905   8.122   8.426 -1.2012  0.0388 -0.8697
 6783SOL    HW221544   0.892   8.269   8.389  0.2104  0.3997 -0.0254
 6784SOL     OW21545   7.677   3.215   7.124  0.4274  0.2000 -0.1051
 6784SOL    HW121546   7.751   3.271   7.101  1.8437 -1.0473  1.2620
 6784SOL    HW221547   7.601   3.274   7.121  1.7847  2.0811  0.7371
 6785SOL     OW21548   4.109   8.342   3.124 -0.2160  0.0947 -0.4100
 6785SOL    HW121549   4.162   8.413   3.089  1.1179  0.6658  2.5122
 6785SOL    HW221550   4.165   8.264   3.116  0.4286  0.3720  1.0237
 6786SOL     OW21551   8.340   8.175   1.144  0.2536  0.1408  0.1209
 6786SOL    HW121552   8.275   8.198   1.078  1.1893 -1.0097 -1.2573
 6786SOL    HW221553   8.291   8.125   1.210 -0.2566 -0.8405 -0.9680
 6787SOL     OW21554   2.840   2.161   2.499  0.3275  0.2538  0.4311
 6787SOL    HW121555   2.759   2.197   2.534 -1.7786 -1.2899 -2.4751
 6787SOL    HW221556   2.860   2.088   2.558 -0.7811  0.2191  0.7924
 6788SOL     OW21557   2.042   8.312   3.632  0.1263  0.3728  0.1093
 6788SOL    HW121558   2.091   8.275   3.706 -0.7488 -0.1707  0.4233
 6788SOL    HW221559   1.982   8.374   3.671  1.5663  2.1736 -0.4118
 6789SOL     OW21560   2.216   2.574   0.852  0.7578 -0.2008 -0.3998
 6789SOL    HW121561   2.221   2.605   0.762  0.7720  2.9824  0.5875
 6789SOL    HW221562   2.294   2.610   0.895 -0.0961 -0.2224  1.2502
 6790SOL     OW21563   3.388   8.166   7.260 -0.2245 -0.1752 -0.1490
 6790SOL    HW121564   3.334   8.164   7.339  0.8948  2.3451  0.7734
 6790SOL    HW221565   3.366   8.085   7.214 -3.0788 -0.3524  1.2878
 6791SOL     OW21566   1.363   4.335   0.754 -0.5829  0.1829 -0.1851
 6791SOL    HW121567   1.361   4.269   0.685  2.5172  0.1930 -0.4035
 6791SOL    HW221568   1.402   4.290   0.829  1.3373  1.6182 -0.2538
 6792SOL     OW21569   1.188   6.777   0.650 -0.3149 -0.7958 -0.2160
 6792SOL    HW121570   1.274   6.769   0.692  0.1271  0.0880 -0.9214
 6792SOL    HW221571   1.208   6.798   0.559 -1.2820 -1.1767 -0.5241
 6793SOL     OW21572   3.987   6.099   3.837  0.1823  0.4539 -0.0761
 6793SOL    HW121573   3.990   6.160   3.764 -0.5798 -0.1610 -0.6329
 6793SOL    HW221574   3.951   6.151   3.910  0.0193  0.8021 -0.4019
 6794SOL     OW21575   6.080   2.050   4.104 -0.3108  0.1726 -0.0908
 6794SOL    HW121576   6.164   2.089   4.128 -0.6338  0.1918  1.0729
 6794SOL    HW221577   6.071   2.067   4.010  0.6184  0.8688 -0.0638
 6795SOL     OW21578   1.482   6.801   4.478 -0.0669 -0.4499 -0.3361
 6795SOL    HW121579   1.423   6.752   4.421  0.2658 -0.6773 -0.4878
 6795SOL    HW221580   1.511   6.874   4.425  0.7313 -1.0055 -0.6776
 6796SOL     OW21581   0.118   2.334   5.639 -0.1875 -0.1604 -0.2699
 6796SOL    HW121582   0.060   2.358   5.712  1.7607  3.0397  0.4301
 6796SOL    HW221583   0.160   2.253   5.668 -3.0937 -1.8066 -0.2019
 6797SOL     OW21584   2.455   6.730   3.345  0.7588  0.4761  0.0644
 6797SOL    HW121585   2.461   6.817   3.306  2.3265  0.0270 -0.8187
 6797SOL    HW221586   2.363   6.705   3.335  0.6426  1.3191 -1.2975
 6798SOL     OW21587   3.831   3.159   7.987 -0.2692 -0.0232  0.5448
 6798SOL    HW121588   3.878   3.159   8.071 -1.5058 -2.9241  1.3265
 6798SOL    HW221589   3.897   3.134   7.923  0.3499  0.8255  0.8238
 6799SOL     OW21590   2.178   3.280   5.934  0.1382  0.4476  0.2663
 6799SOL    HW121591   2.163   3.296   6.027  1.6511  0.6843  0.4941
 6799SOL    HW221592   2.155   3.188   5.922 -0.7762  0.6050  0.7036
 6800SOL     OW21593   8.419   4.785   6.297  0.5183 -0.4519  0.3787
 6800SOL    HW121594   8.470   4.741   6.229  1.1159 -0.5527  0.8873
 6800SOL    HW221595   8.353   4.835   6.249  2.3131  1.2561 -0.4128
 6801SOL     OW21596   0.395   0.074   2.423 -0.6169 -0.0775 -0.6009
 6801SOL    HW121597   0.334   0.043   2.490 -1.9055  1.2074 -1.1256
 6801SOL    HW221598   0.345   0.072   2.342  0.9401 -1.6902 -1.5908
 6802SOL     OW21599   2.901   8.277   3.524  0.5844 -1.0431 -0.9588
 6802SOL    HW121600   2.970   8.213   3.507  1.2278 -0.7953  0.5636
 6802SOL    HW221601   2.947   8.360   3.536  0.0571 -0.8816  0.1119
 6803SOL     OW21602   6.258   3.746   0.260 -0.1143 -0.1186 -0.2612
 6803SOL    HW121603   6.272   3.651   0.267  2.9531  0.2818  0.4296
 6803SOL    HW221604   6.346   3.783   0.256 -1.2377  2.6884 -1.2945
 6804SOL     OW21605   5.003   2.713   4.323 -0.0693  0.1463 -0.6243
 6804SOL    HW121606   5.040   2.783   4.377 -1.3641 -0.8071  1.6177
 6804SOL    HW221607   5.074   2.649   4.315  0.1132  0.2655  0.0122
 6805SOL     OW21608   1.618   0.338   0.161  0.2272  0.2857  0.2448
 6805SOL    HW121609   1.539   0.309   0.114  0.0769  1.9291 -0.5777
 6805SOL    HW221610   1.647   0.260   0.208 -0.1643 -1.2120 -1.8398
 6806SOL     OW21611   2.031   6.668   7.116 -0.5520 -0.2095  0.4682
 6806SOL    HW121612   2.096   6.635   7.054  0.9560 -0.1666  1.9766
 6806SOL    HW221613   1.961   6.603   7.115 -0.6114 -0.1694 -1.3101
 6807SOL     OW21614   5.711   6.327   8.175 -0.2842  0.9256 -0.0948
 6807SOL    HW121615   5.797   6.350   8.209 -0.1409 -0.8732  0.8836
 6807SOL    HW221616   5.730   6.271   8.099 -0.4993 -1.0428  1.2214
 6808SOL     OW21617   4.387   3.224   1.305 -0.0451 -0.0009  0.6201
 6808SOL    HW121618   4.348   3.137   1.296 -0.7622  0.1111  2.1997
 6808SOL    HW221619   4.407   3.231   1.398  3.0700  0.2938  0.0212
 6809SOL     OW21620   4.236   1.669   6.824 -0.2948 -0.2635  0.6951
 6809SOL    HW121621   4.315   1.695   6.872 -1.1921  0.8371  1.6497
 6809SOL    HW221622   4.192   1.608   6.883  0.4362 -1.8941 -0.3781
 6810SOL     OW21623   8.305   5.304   5.079 -0.2056 -0.9392 -0.6833
 6810SOL    HW121624   8.398   5.291   5.059 -0.7189 -1.5277 -3.1044
 6810SOL    HW221625   8.298   5.397   5.101  0.9118 -0.7911 -0.8809
 6811SOL     OW21626   4.874   2.358   5.917  0.0655 -0.4208  0.0061
 6811SOL    HW121627   4.803   2.313   5.872  0.8510  0.0787 -1.8319
 6811SOL    HW221628   4.876   2.445   5.877 -1.3328  1.3565  3.3486
 6812SOL     OW21629   2.236   6.624   1.148  0.2813 -0.3191  0.7107
 6812SOL    HW121630   2.204   6.704   1.190  2.0207  0.7231  0.1346
 6812SOL    HW221631   2.272   6.572   1.221  1.3118  0.5103  0.8178
 6813SOL     OW21632   3.016   7.136   4.592  0.3453 -0.1378  0.2047
 6813SOL    HW121633   2.978   7.199   4.654 -1.0442 -0.5964 -0.1416
 6813SOL    HW221634   3.015   7.053   4.640  1.1477 -0.1163  0.2690
 6814SOL     OW21635   6.288   1.336   2.096  0.0666  0.4238 -0.1848
 6814SOL    HW121636   6.348   1.326   2.022 -0.0896 -0.6940 -0.1726
 6814SOL    HW221637   6.314   1.268   2.158 -2.2382 -1.2348 -0.8959
 6815SOL     OW21638   6.722   3.775   0.485 -0.0079 -0.0350  0.1177
 6815SOL    HW121639   6.733   3.695   0.535  0.5695 -0.3200 -0.4554
 6815SOL    HW221640   6.796   3.830   0.510  1.5839 -1.0635 -2.0557
 6816SOL     OW21641   7.155   1.205   2.752  0.3232 -0.3745 -0.0241
 6816SOL    HW121642   7.080   1.207   2.693  0.7793 -1.6236 -0.6871
 6816SOL    HW221643   7.226   1.167   2.699  1.4280  0.7598  0.5865
 6817SOL     OW21644   4.245   4.508   3.577  0.1107  0.0894  0.2830
 6817SOL    HW121645   4.223   4.422   3.612 -1.0937  0.1442 -0.2958
 6817SOL    HW221646   4.161   4.547   3.555  0.6863  1.1423 -0.1052
 6818SOL     OW21647   1.933   0.069   2.034  0.4004 -0.0848  0.3849
 6818SOL    HW121648   2.027   0.049   2.039  0.2355 -0.6836  1.5241
 6818SOL    HW221649   1.921   0.140   2.097  0.5212  1.9280 -1.7316
 6819SOL     OW21650   0.607   7.631   4.150 -0.2695 -0.3000 -0.4782
 6819SOL    HW121651   0.618   7.547   4.194  1.8049 -0.2166 -0.7384
 6819SOL    HW221652   0.597   7.609   4.058 -0.5377 -0.2933 -0.4512
 6820SOL     OW21653   6.261   1.886   1.015 -0.0374 -1.0907 -0.2169
 6820SOL    HW121654   6.254   1.982   1.014  1.3820 -0.9415 -2.4644
 6820SOL    HW221655   6.254   1.863   1.107 -0.6189  1.1519  0.3701
 6821SOL     OW21656   1.493   2.063   0.425  0.1669 -0.0617 -0.1143
 6821SOL    HW121657   1.495   2.012   0.506 -0.6777  2.4048  1.5700
 6821SOL    HW221658   1.425   2.129   0.440  1.2414  1.6106 -2.1002
 6822SOL     OW21659   1.843   5.564   4.264  0.2377 -0.5002 -0.0365
 6822SOL    HW121660   1.783   5.595   4.196 -0.9958 -0.3733  1.0502
 6822SOL    HW221661   1.847   5.637   4.327  2.1807 -0.1967 -0.4628
 6823SOL     OW21662   0.179   6.285   6.919  0.3090 -0.1382 -0.8293
 6823SOL    HW121663   0.260   6.288   6.970  1.1124 -0.0418 -2.0639
 6823SOL    HW221664   0.157   6.192   6.914  2.1761 -0.5395 -3.1967
 6824SOL     OW21665   3.405   2.138   3.108  0.1025 -0.2320 -0.3236
 6824SOL    HW121666   3.359   2.206   3.159 -0.6300 -0.5874 -0.4903
 6824SOL    HW221667   3.336   2.075   3.087  0.6697 -0.7425 -0.6483
 6825SOL     OW21668   0.754   7.123   6.495  0.2593  0.5285 -0.3220
 6825SOL    HW121669   0.792   7.045   6.454 -0.0690  0.7074 -0.9784
 6825SOL    HW221670   0.711   7.169   6.423 -0.5105  0.7399  0.2654
 6826SOL     OW21671   2.430   3.941   6.752 -0.3097 -0.1886 -0.5880
 6826SOL    HW121672   2.471   4.028   6.754 -0.6254 -0.0258 -1.0167
 6826SOL    HW221673   2.502   3.880   6.768 -0.3826  0.2381  1.7540
 6827SOL     OW21674   0.523   1.651   6.329 -0.0302  0.3952 -0.0631
 6827SOL    HW121675   0.475   1.726   6.364 -0.7140 -1.3711  3.1647
 6827SOL    HW221676   0.571   1.616   6.404  0.2361 -2.4178 -1.4310
 6828SOL     OW21677   2.936   0.925   3.883  0.5822  0.1822  0.5463
 6828SOL    HW121678   2.949   0.967   3.798 -1.7234  0.5153  0.2862
 6828SOL    HW221679   2.855   0.874   3.872  1.1558 -1.1201  2.0468
 6829SOL     OW21680   4.466   4.950   6.121 -0.1643 -0.1455  0.1733
 6829SOL    HW121681   4.396   4.884   6.125  0.2201 -0.6554 -1.0689
 6829SOL    HW221682   4.532   4.919   6.184 -0.3238 -0.5392  0.1512
 6830SOL     OW21683   1.302   4.221   3.240 -0.2029 -0.0837 -0.1234
 6830SOL    HW121684   1.302   4.203   3.334  0.8749  0.5776  0.0117
 6830SOL    HW221685   1.270   4.139   3.201 -1.2281 -0.1759  0.8313
 6831SOL     OW21686   7.499   6.320   0.169  0.1264  0.3161 -0.0890
 6831SOL    HW121687   7.419   6.327   0.221  0.4652  3.5581  0.1833
 6831SOL    HW221688   7.468   6.309   0.079 -0.5421 -0.8888  0.2675
 6832SOL     OW21689   6.063   6.632   6.594  0.3525  0.3151 -0.2805
 6832SOL    HW121690   6.137   6.668   6.547  0.8708  1.1422  1.1000
 6832SOL    HW221691   6.012   6.586   6.528  1.9751 -0.0974 -1.3004
 6833SOL     OW21692   6.618   2.404   0.339 -0.0684  0.0392 -0.1125
 6833SOL    HW121693   6.549   2.376   0.280 -0.5672  1.0249 -0.0218
 6833SOL    HW221694   6.638   2.326   0.392  0.4980 -0.9015 -1.6524
 6834SOL     OW21695   0.369   3.046   2.163  0.0376 -0.3210 -0.0012
 6834SOL    HW121696   0.358   3.087   2.249  2.1054 -2.1410  1.2438
 6834SOL    HW221697   0.400   3.117   2.106 -0.7564  0.7767  0.8936
 6835SOL     OW21698   5.047   8.380   2.517 -0.1786  0.3765 -0.2461
 6835SOL    HW121699   5.080   8.290   2.517  0.7698  0.6647  1.9609
 6835SOL    HW221700   5.113   8.430   2.469  1.9065  0.6416  2.6358
 6836SOL     OW21701   0.286   3.369   6.352 -0.1937  0.2490  0.1409
 6836SOL    HW121702   0.285   3.309   6.277  0.0259 -2.2794  2.0025
 6836SOL    HW221703   0.372   3.411   6.348 -0.0449 -0.1062 -0.8236
 6837SOL     OW21704   3.738   2.638   1.432 -0.7195 -0.0954  0.2539
 6837SOL    HW121705   3.674   2.571   1.453 -1.4333  0.3927 -0.3438
 6837SOL    HW221706   3.714   2.712   1.488 -1.2133  0.3896 -0.5816
 6838SOL     OW21707   5.614   3.129   8.346 -0.1834 -0.6324  0.4314
 6838SOL    HW121708   5.621   3.063   8.277 -1.4138 -1.8581  1.4404
 6838SOL    HW221709   5.610   3.212   8.298  0.0619 -1.3666 -0.9213
 6839SOL     OW21710   5.393   1.991   5.328  0.4872 -0.1200 -0.3416
 6839SOL    HW121711   5.335   2.029   5.261 -0.6271 -0.6353  0.3016
 6839SOL    HW221712   5.382   1.896   5.318  2.6263 -0.3254 -1.3936
 6840SOL     OW21713   8.246   1.472   7.899  0.0088 -0.2079  0.1799
 6840SOL    HW121714   8.320   1.415   7.879  0.7218  1.0329 -0.8933
 6840SOL    HW221715   8.169   1.420   7.876  0.6951  0.2072 -3.7780
 6841SOL     OW21716   5.573   3.629   8.072 -0.0993  0.8164  0.0161
 6841SOL    HW121717   5.482   3.641   8.098 -0.9007 -2.7355 -0.6195
 6841SOL    HW221718   5.571   3.633   7.976  0.2259  0.0363 -0.0376
 6842SOL     OW21719   8.595   6.242   4.937  0.3441 -0.2093 -0.5643
 6842SOL    HW121720   8.565   6.229   5.027 -0.6286  0.6249 -0.7517
 6842SOL    HW221721   8.558   6.326   4.911 -2.3891 -1.9149 -2.8997
 6843SOL     OW21722   1.239   3.608   6.493  1.0813  0.8249  0.5808
 6843SOL    HW121723   1.220   3.535   6.552 -0.5542 -0.2175 -1.1090
 6843SOL    HW221724   1.334   3.604   6.480  1.0239 -1.1897  0.3688
 6844SOL     OW21725   6.637   6.530   6.458 -0.0558  0.4917 -0.1446
 6844SOL    HW121726   6.684   6.509   6.378 -0.8301  0.8946 -0.7143
 6844SOL    HW221727   6.697   6.504   6.529  0.1781 -0.9334 -0.8237
 6845SOL     OW21728   0.086   7.317   4.110  0.6878  0.0762 -0.1916
 6845SOL    HW121729   0.103   7.381   4.179 -0.7756  1.9187 -1.4289
 6845SOL    HW221730   0.010   7.268   4.140  2.2862 -1.7231  1.1194
 6846SOL     OW21731   7.919   4.872   0.197 -0.8100 -0.0509  0.4772
 6846SOL    HW121732   7.824   4.881   0.212 -0.7757 -0.2331  0.8271
 6846SOL    HW221733   7.927   4.851   0.104 -1.1436 -0.4898  0.5451
 6847SOL     OW21734   1.493   5.945   8.260  0.2180  0.1628  0.3171
 6847SOL    HW121735   1.522   5.975   8.174 -0.2642  1.3876  0.5597
 6847SOL    HW221736   1.574   5.934   8.311  0.4073  2.1918  0.5577
 6848SOL     OW21737   6.656   4.344   8.216 -0.1545  0.4752 -0.2721
 6848SOL    HW121738   6.713   4.417   8.191  0.1915  0.1741 -0.3736
 6848SOL    HW221739   6.689   4.269   8.166 -0.0179  0.0764  0.4036
 6849SOL     OW21740   2.481   5.106   5.685  0.2235  0.1249 -0.6780
 6849SOL    HW121741   2.485   5.025   5.634 -0.3347 -1.0692  1.0879
 6849SOL    HW221742   2.439   5.081   5.767  1.5641  1.8254  0.6144
 6850SOL     OW21743   2.061   4.304   4.695 -0.4765 -0.1407  0.5321
 6850SOL    HW121744   1.978   4.257   4.696 -0.1395 -0.7957 -0.2923
 6850SOL    HW221745   2.122   4.244   4.652  0.2315  0.6287  0.4233
 6851SOL     OW21746   4.629   2.500   5.464 -0.0135 -0.1684 -0.3736
 6851SOL    HW121747   4.703   2.502   5.403 -0.0614  1.2052 -0.4179
 6851SOL    HW221748   4.597   2.590   5.466 -1.8468 -0.7812 -0.5217
 6852SOL     OW21749   4.957   7.238   8.519 -0.7649  0.1983  0.4024
 6852SOL    HW121750   4.948   7.332   8.503  0.8942  0.4704  0.7849
 6852SOL    HW221751   4.891   7.218   8.584 -1.4324  1.0070 -0.0073
 6853SOL     OW21752   7.517   6.706   6.685 -0.6467 -0.0587  0.6818
 6853SOL    HW121753   7.536   6.749   6.602 -0.8262 -0.9259  0.1849
 6853SOL    HW221754   7.527   6.775   6.751 -1.3627  0.8465 -0.1396
 6854SOL     OW21755   8.181   7.607   6.180 -0.4908  0.0897 -0.3144
 6854SOL    HW121756   8.209   7.696   6.201  0.0370 -0.4033  1.2666
 6854SOL    HW221757   8.110   7.589   6.242 -1.7053 -0.0529 -1.6927
 6855SOL     OW21758   6.197   4.706   1.610 -0.2089 -0.0526  0.4494
 6855SOL    HW121759   6.192   4.798   1.582  1.9333 -0.0174  0.0350
 6855SOL    HW221760   6.107   4.675   1.603 -0.5376  1.1816 -2.3071
 6856SOL     OW21761   5.290   1.651   7.881  0.4906 -0.0991 -0.5011
 6856SOL    HW121762   5.319   1.599   7.806  1.3884  0.6538 -0.6842
 6856SOL    HW221763   5.305   1.594   7.957 -0.5560 -0.9227 -0.8709
 6857SOL     OW21764   3.792   3.806   8.491 -0.7204 -0.2849  0.1595
 6857SOL    HW121765   3.855   3.757   8.438 -2.5156 -0.8776 -1.5342
 6857SOL    HW221766   3.832   3.893   8.501 -0.1110 -0.2979 -1.8026
 6858SOL     OW21767   4.879   0.422   0.385  0.3870  0.3383 -0.2289
 6858SOL    HW121768   4.899   0.346   0.439  0.8024 -0.6624 -1.7296
 6858SOL    HW221769   4.790   0.406   0.354  0.0556  1.0341  0.3272
 6859SOL     OW21770   0.129   2.102   6.182 -0.0056  0.1014 -0.0868
 6859SOL    HW121771   0.043   2.143   6.172 -0.8166 -1.6572 -0.7900
 6859SOL    HW221772   0.165   2.100   6.094  0.0121 -0.6776 -0.0688
 6860SOL     OW21773   0.362   1.741   2.909 -0.0460 -0.3446  0.0130
 6860SOL    HW121774   0.358   1.747   2.814 -0.5059 -0.8943 -0.0059
 6860SOL    HW221775   0.347   1.648   2.928 -1.6098  0.0326  0.7102
 6861SOL     OW21776   3.826   1.050   1.593  0.4471  0.1329  0.0588
 6861SOL    HW121777   3.823   1.011   1.680 -1.7900  1.0863  0.4804
 6861SOL    HW221778   3.737   1.080   1.577  1.0087  0.8142 -2.1981
 6862SOL     OW21779   4.333   4.778   1.953 -0.0176  0.3841  0.5611
 6862SOL    HW121780   4.305   4.850   2.010 -0.8125 -0.2948  1.0532
 6862SOL    HW221781   4.429   4.777   1.961 -0.0290  1.1150  0.8745
 6863SOL     OW21782   4.752   5.367   2.790  0.3431  0.9510 -0.0431
 6863SOL    HW121783   4.837   5.393   2.753  0.7435 -0.3107 -0.0509
 6863SOL    HW221784   4.766   5.368   2.885  0.7327 -0.3266 -0.0596
 6864SOL     OW21785   3.115   0.330   5.742  0.0830 -0.6875  0.0231
 6864SOL    HW121786   3.119   0.249   5.793  0.9907 -0.2972  0.6124
 6864SOL    HW221787   3.206   0.346   5.717  0.0595  0.6461  0.7338
 6865SOL     OW21788   4.345   0.428   0.727  0.8282  0.2265 -0.4305
 6865SOL    HW121789   4.368   0.380   0.807  0.9670  1.6637  0.4183
 6865SOL    HW221790   4.423   0.480   0.708  0.1865  1.1726 -0.5245
 6866SOL     OW21791   7.952   4.337   0.567  0.4400  0.3214  0.5534
 6866SOL    HW121792   8.031   4.377   0.603 -0.0551  2.1323 -0.2207
 6866SOL    HW221793   7.885   4.353   0.633  0.4471 -0.0974  0.6635
 6867SOL     OW21794   8.482   5.480   1.645 -0.3458  0.3490 -0.0855
 6867SOL    HW121795   8.448   5.414   1.585 -0.5868 -0.6176  1.0976
 6867SOL    HW221796   8.449   5.455   1.731  2.0039  0.2791  0.8774
 6868SOL     OW21797   4.386   5.072   4.715 -0.5229 -0.0466  0.1249
 6868SOL    HW121798   4.338   5.077   4.798  0.6139 -0.0828  0.8137
 6868SOL    HW221799   4.461   5.016   4.735 -0.1264  0.1163 -0.8809
 6869SOL     OW21800   6.233   2.972   2.178  0.5370  0.7156 -0.1692
 6869SOL    HW121801   6.251   2.900   2.238 -0.4180  1.7025  1.3766
 6869SOL    HW221802   6.319   2.999   2.146  0.8238 -2.5110 -2.6181
 6870SOL     OW21803   2.785   6.106   8.305 -0.0727  0.0772 -0.7987
 6870SOL    HW121804   2.825   6.044   8.245  1.4081  0.9154 -0.7234
 6870SOL    HW221805   2.792   6.191   8.261  0.2791  0.5706  0.1757
 6871SOL     OW21806   4.452   1.257   1.371  0.2448  0.0671  0.7794
 6871SOL    HW121807   4.510   1.183   1.387  0.0935 -0.5591 -1.3255
 6871SOL    HW221808   4.365   1.219   1.364 -0.0180  0.6236  0.8951
 6872SOL     OW21809   7.622   4.125   3.214 -0.2021  0.0639  0.0116
 6872SOL    HW121810   7.715   4.132   3.191 -0.6337  0.9603 -1.6255
 6872SOL    HW221811   7.595   4.215   3.230 -0.6336 -0.2723  1.2328
 6873SOL     OW21812   4.662   3.889   6.259  0.1576 -0.0739 -0.2503
 6873SOL    HW121813   4.611   3.951   6.311  1.2509  0.3561  0.3471
 6873SOL    HW221814   4.622   3.891   6.173  0.6577  2.0928 -0.4784
 6874SOL     OW21815   6.584   0.603   0.204 -0.0644  0.2940 -0.2370
 6874SOL    HW121816   6.490   0.587   0.215 -0.6379  2.1102 -1.8750
 6874SOL    HW221817   6.594   0.698   0.216  1.5464  0.1491 -0.2258
 6875SOL     OW21818   6.572   5.555   1.038  0.2446 -0.2506 -0.0235
 6875SOL    HW121819   6.503   5.621   1.045  0.6458  0.2696 -0.8417
 6875SOL    HW221820   6.623   5.582   0.962 -0.1601 -2.0532 -0.9790
 6876SOL     OW21821   5.190   4.859   0.969 -0.1976  0.1101  0.1499
 6876SOL    HW121822   5.168   4.891   1.057 -1.9967 -2.3773  0.7253
 6876SOL    HW221823   5.107   4.863   0.921  0.7074  1.2265 -1.4353
 6877SOL     OW21824   1.915   4.523   3.889 -0.2466 -0.4694  0.1093
 6877SOL    HW121825   1.867   4.525   3.972  1.2449  0.5178  0.9900
 6877SOL    HW221826   1.872   4.454   3.839 -0.9295 -1.4072  1.8755
 6878SOL     OW21827   3.423   5.084   2.594 -0.5620  0.7112 -0.0716
 6878SOL    HW121828   3.383   5.067   2.679  0.4041 -0.4182  0.1846
 6878SOL    HW221829   3.513   5.053   2.603 -0.3240  0.9530 -1.3779
 6879SOL     OW21830   2.558   2.282   3.681 -0.8889 -0.0322  0.0732
 6879SOL    HW121831   2.535   2.235   3.601  0.2463  0.9106 -0.8482
 6879SOL    HW221832   2.597   2.216   3.738 -0.3413 -0.4341 -0.7482
 6880SOL     OW21833   4.618   2.068   4.933 -0.0171 -0.6822 -0.2447
 6880SOL    HW121834   4.635   2.107   5.019  1.6750 -0.7822 -0.4922
 6880SOL    HW221835   4.704   2.040   4.903 -0.7630 -1.7953 -1.4338
 6881SOL     OW21836   0.944   5.950   2.803  0.2190  0.1061 -0.1940
 6881SOL    HW121837   0.986   5.934   2.887 -1.4190  2.6641  1.2530
 6881SOL    HW221838   1.014   5.983   2.747  1.1171 -0.6318  0.4560
 6882SOL     OW21839   7.665   6.086   6.498  0.5869  0.0811 -0.1225
 6882SOL    HW121840   7.677   5.998   6.461  2.4430 -0.7894  2.2710
 6882SOL    HW221841   7.755   6.117   6.513 -0.0624  1.3309  1.3698
 6883SOL     OW21842   1.848   7.351   6.290 -0.7209 -0.6411  0.2446
 6883SOL    HW121843   1.831   7.283   6.356  0.5426  0.1821  1.4850
 6883SOL    HW221844   1.768   7.404   6.290 -1.2247 -1.3810  0.1802
 6884SOL     OW21845   5.642   2.997   4.489  0.4890 -0.3730 -0.4419
 6884SOL    HW121846   5.619   3.008   4.397 -0.2566  0.9807 -0.1322
 6884SOL    HW221847   5.650   2.902   4.501 -1.4619 -0.7229 -1.4320
 6885SOL     OW21848   3.519   6.125   4.237  0.4605  0.3541 -0.5592
 6885SOL    HW121849   3.425   6.129   4.223  0.4181  1.5909 -0.0730
 6885SOL    HW221850   3.555   6.095   4.153 -0.3178  0.4547 -0.9328
 6886SOL     OW21851   4.555   7.768   4.217 -0.0530 -0.0533  0.1741
 6886SOL    HW121852   4.492   7.839   4.232  0.2641 -0.1519  2.3184
 6886SOL    HW221853   4.591   7.786   4.130  0.1507  2.5461  0.7099
 6887SOL     OW21854   2.615   1.014   3.251 -0.2456  0.2579  0.0600
 6887SOL    HW121855   2.528   1.027   3.212 -0.5691  2.8972  1.4139
 6887SOL    HW221856   2.599   0.964   3.331  0.0685 -2.6454 -1.5520
 6888SOL     OW21857   0.657   4.957   3.641 -0.3570  0.3671  0.2963
 6888SOL    HW121858   0.656   5.043   3.598 -3.2471  0.5593  0.5801
 6888SOL    HW221859   0.689   4.897   3.573 -0.2577  1.3636 -0.5632
 6889SOL     OW21860   4.979   7.831   5.509  0.3251 -0.1250  0.1831
 6889SOL    HW121861   4.982   7.804   5.601 -1.0989  0.7228  0.5232
 6889SOL    HW221862   4.897   7.793   5.476 -0.8379  2.1749  0.1973
 6890SOL     OW21863   4.422   2.269   5.850  0.2061 -0.3238 -0.1556
 6890SOL    HW121864   4.397   2.314   5.769  0.6200 -0.3788 -0.3214
 6890SOL    HW221865   4.349   2.283   5.910  0.0866  0.0899 -0.3953
 6891SOL     OW21866   2.329   8.383   2.754 -0.9032  0.0796 -0.0687
 6891SOL    HW121867   2.374   8.314   2.803 -3.1838 -0.2275  1.7988
 6891SOL    HW221868   2.295   8.340   2.676  1.3237  0.1700 -1.1654
 6892SOL     OW21869   4.243   4.652   5.628 -0.1134  0.1639  0.1014
 6892SOL    HW121870   4.233   4.630   5.720  0.8360 -2.7681 -0.3844
 6892SOL    HW221871   4.156   4.679   5.600 -0.4581  0.9230  1.7808
 6893SOL     OW21872   1.775   7.119   7.256  0.5598  0.0312 -0.1320
 6893SOL    HW121873   1.806   7.032   7.280 -0.0349  0.3058  1.7661
 6893SOL    HW221874   1.680   7.110   7.246  0.6847  0.1101 -1.7192
 6894SOL     OW21875   4.068   2.762   6.323  0.7028  0.2654 -0.0981
 6894SOL    HW121876   4.064   2.769   6.228  0.4930  0.8217 -0.0544
 6894SOL    HW221877   4.037   2.674   6.343  0.7174  0.1599 -0.5403
 6895SOL     OW21878   0.012   4.011   8.135  0.0839 -0.0131  0.0714
 6895SOL    HW121879  -0.010   3.950   8.064  0.6132 -0.3485  0.1904
 6895SOL    HW221880  -0.045   3.985   8.208  1.8254 -1.8336  0.8746
 6896SOL     OW21881   7.988   7.589   2.444 -0.5948  0.3933  0.1380
 6896SOL    HW121882   7.952   7.515   2.492  0.0194  0.2729  0.4279
 6896SOL    HW221883   8.053   7.550   2.385 -1.5589  0.5033 -1.0252
 6897SOL     OW21884   3.989   6.042   2.782  0.1924 -0.0100 -0.3288
 6897SOL    HW121885   4.054   6.049   2.712  0.5162 -0.2847 -0.0632
 6897SOL    HW221886   4.021   6.101   2.850  1.3906 -1.7785  0.7276
 6898SOL     OW21887   1.867   7.825   1.942 -0.5398 -0.2880  0.0002
 6898SOL    HW121888   1.841   7.733   1.948  0.1963 -0.4217  1.5805
 6898SOL    HW221889   1.960   7.826   1.964 -0.4116  0.7895 -0.5164
 6899SOL     OW21890   2.840   3.292   8.381  0.2053  0.2291  0.5436
 6899SOL    HW121891   2.922   3.254   8.414  0.3175 -1.4339 -1.4653
 6899SOL    HW221892   2.864   3.380   8.352  1.0278  0.1573  0.9673
 6900SOL     OW21893   3.855   1.546   3.137  0.4072  0.2949 -0.2779
 6900SOL    HW121894   3.920   1.484   3.170 -0.3048 -1.0625 -1.2959
 6900SOL    HW221895   3.835   1.514   3.049  1.4148  3.0842 -1.6455
 6901SOL     OW21896   5.295   2.640   7.505  0.7054  0.2754 -0.1636
 6901SOL    HW121897   5.334   2.615   7.421 -1.0362  0.2504 -1.0143
 6901SOL    HW221898   5.266   2.558   7.544  0.8677  0.3613  0.1479
 6902SOL     OW21899   0.877   7.202   4.185 -0.2104  0.1420  0.4564
 6902SOL    HW121900   0.903   7.208   4.093  0.6086 -2.3233  0.4554
 6902SOL    HW221901   0.955   7.169   4.230 -1.1661 -0.5086  1.6999
 6903SOL     OW21902   6.880   1.763   2.125  0.3446  0.2515 -0.0720
 6903SOL    HW121903   6.801   1.774   2.072 -0.1519 -1.2874  0.3205
 6903SOL    HW221904   6.947   1.738   2.062  0.5243  1.4510 -0.3898
 6904SOL     OW21905   1.836   3.645   6.549 -0.1810 -0.0845  0.5402
 6904SOL    HW121906   1.766   3.619   6.609 -1.5596 -0.2552 -1.0521
 6904SOL    HW221907   1.792   3.653   6.464  1.6803  0.1762 -0.4424
 6905SOL     OW21908   7.077   1.818   1.434 -0.3423 -0.3143 -0.0815
 6905SOL    HW121909   7.088   1.913   1.428  0.7359 -0.4136  0.1026
 6905SOL    HW221910   7.145   1.790   1.495  0.0119 -1.3203 -0.9059
 6906SOL     OW21911   0.082   2.439   2.811  0.0960 -0.2091  0.5325
 6906SOL    HW121912   0.026   2.374   2.854 -0.0656  1.2801  2.7189
 6906SOL    HW221913   0.020   2.501   2.772  0.1976 -2.1696 -3.1606
 6907SOL     OW21914   7.324   4.757   1.077  0.5939  0.0844  0.6461
 6907SOL    HW121915   7.230   4.751   1.094  0.4703 -0.0039 -0.0312
 6907SOL    HW221916   7.365   4.709   1.149  0.1567  0.6263  1.2712
 6908SOL     OW21917   0.284   2.811   5.107  0.2828  0.1084  0.4228
 6908SOL    HW121918   0.226   2.885   5.123  0.6313  0.5210 -0.2055
 6908SOL    HW221919   0.248   2.741   5.162 -1.3726  0.0515 -0.6729
 6909SOL     OW21920   6.755   4.677   4.313  0.0560 -0.2918  0.5275
 6909SOL    HW121921   6.739   4.609   4.379 -0.4287  0.1969  0.9190
 6909SOL    HW221922   6.700   4.750   4.340 -0.1936 -0.1075 -0.4582
 6910SOL     OW21923   2.144   4.636   1.536  0.2713  0.0435  0.5749
 6910SOL    HW121924   2.221   4.586   1.564  1.6229  1.7341  0.1115
 6910SOL    HW221925   2.160   4.653   1.443 -2.1006 -1.9430 -0.3030
 6911SOL     OW21926   5.945   5.149   6.417  0.1936  0.0463 -0.2503
 6911SOL    HW121927   5.913   5.203   6.345  3.8006 -0.3294 -2.3789
 6911SOL    HW221928   5.891   5.070   6.413 -1.8709  1.3925 -0.2915
 6912SOL     OW21929   4.513   3.792   7.321  0.9469 -0.3161  0.0325
 6912SOL    HW121930   4.450   3.723   7.341  0.7318 -0.4532 -1.0545
 6912SOL    HW221931   4.560   3.760   7.244  0.2523  1.1103 -1.0304
 6913SOL     OW21932   2.793   6.274   2.742 -0.6108 -0.8746 -0.3828
 6913SOL    HW121933   2.803   6.355   2.692 -1.1557 -0.4396  0.1860
 6913SOL    HW221934   2.765   6.209   2.678  0.4467 -0.7821 -0.9662
 6914SOL     OW21935   4.013   7.838   5.415 -0.1118  0.3548 -0.0702
 6914SOL    HW121936   4.028   7.778   5.342 -1.1271  0.9199 -0.7630
 6914SOL    HW221937   4.003   7.924   5.374 -1.0254  0.6334  0.6972
 6915SOL     OW21938   5.750   3.772   4.640  0.0841 -0.5871  0.3076
 6915SOL    HW121939   5.841   3.750   4.621 -0.1363 -1.6249  0.3769
 6915SOL    HW221940   5.749   3.867   4.650  0.6325 -0.1751 -2.6053
 6916SOL     OW21941   6.442   1.055   2.817  0.0841  0.2823 -0.1027
 6916SOL    HW121942   6.486   0.988   2.870  0.8590  0.7865 -0.0900
 6916SOL    HW221943   6.508   1.124   2.806 -0.3538  0.5741 -0.9994
 6917SOL     OW21944   4.671   5.380   4.312 -0.2391 -0.3302 -0.8737
 6917SOL    HW121945   4.667   5.311   4.378  0.4897  0.8130  0.4270
 6917SOL    HW221946   4.678   5.334   4.229 -1.6425 -1.8223 -0.2079
 6918SOL     OW21947   3.883   3.742   3.003 -0.2466 -0.2512  0.0770
 6918SOL    HW121948   3.977   3.745   3.023 -0.0901 -1.8697 -0.2697
 6918SOL    HW221949   3.848   3.676   3.063 -1.4327  1.1762  1.0473
 6919SOL     OW21950   4.048   4.371   3.310 -0.5991  0.0099 -0.6054
 6919SOL    HW121951   4.144   4.378   3.308 -0.4573  0.0512  2.1887
 6919SOL    HW221952   4.017   4.461   3.304 -0.4358  0.0327 -1.0797
 6920SOL     OW21953   0.640   4.166   6.587 -0.1499 -0.0928  0.0080
 6920SOL    HW121954   0.721   4.125   6.617  0.2478 -1.7751 -2.9687
 6920SOL    HW221955   0.570   4.111   6.624  0.3267 -2.3127 -2.1225
 6921SOL     OW21956   0.403   7.873   7.339  0.2301  0.2017  0.0959
 6921SOL    HW121957   0.337   7.851   7.274  0.5346  0.9220 -0.4633
 6921SOL    HW221958   0.443   7.789   7.362  0.5323  0.0081 -1.0986
 6922SOL     OW21959   3.343   2.898   2.179  0.3675  0.5166 -0.0055
 6922SOL    HW121960   3.384   2.934   2.100 -0.0472 -1.0260 -0.9708
 6922SOL    HW221961   3.263   2.949   2.190  0.9353  1.4268  0.0446
 6923SOL     OW21962   4.350   4.545   1.792 -0.9036  0.0966 -0.1457
 6923SOL    HW121963   4.386   4.495   1.864  1.5033  1.1933 -0.4840
 6923SOL    HW221964   4.337   4.633   1.828 -1.5654  0.1514 -0.5156
 6924SOL     OW21965   1.812   3.548   5.685 -0.0987  0.1876  0.6207
 6924SOL    HW121966   1.772   3.515   5.766 -0.2207 -2.3966 -0.3767
 6924SOL    HW221967   1.901   3.511   5.687  1.0915  2.8755  1.0975
 6925SOL     OW21968   1.141   3.330   0.977 -0.4287  0.2168 -0.5258
 6925SOL    HW121969   1.092   3.327   1.059 -1.8412 -0.4083 -1.3609
 6925SOL    HW221970   1.194   3.250   0.978 -2.1819 -1.0146 -1.2205
 6926SOL     OW21971   8.514   3.928   0.063  0.4390  0.2112  0.0455
 6926SOL    HW121972   8.536   4.018   0.038 -0.1196  0.3377 -0.0081
 6926SOL    HW221973   8.537   3.923   0.156  0.1885  0.4995  0.1231
 6927SOL     OW21974   2.689   5.163   4.677 -0.5130 -0.4613  0.0078
 6927SOL    HW121975   2.732   5.202   4.601 -1.5094  0.3556 -0.1482
 6927SOL    HW221976   2.637   5.091   4.641  1.0632 -1.8058  0.2578
 6928SOL     OW21977   2.605   2.417   7.587  0.0051 -0.4110  0.4451
 6928SOL    HW121978   2.641   2.331   7.609  0.5889 -0.4415 -0.6075
 6928SOL    HW221979   2.572   2.450   7.671 -0.0441 -1.5646  0.9056
 6929SOL     OW21980   5.400   7.003   6.605  0.2604  0.1505  0.3385
 6929SOL    HW121981   5.395   6.933   6.669 -0.2002  1.6028  1.9494
 6929SOL    HW221982   5.362   7.079   6.649 -0.1666  1.1829 -1.6885
 6930SOL     OW21983   3.592   3.416   5.933  0.0259 -0.3861  0.1383
 6930SOL    HW121984   3.574   3.489   5.992 -1.3622 -0.3872 -0.2517
 6930SOL    HW221985   3.650   3.453   5.866 -1.2753  0.5793 -0.4835
 6931SOL     OW21986   5.804   2.963   3.090 -0.5653  0.2184 -0.5414
 6931SOL    HW121987   5.742   2.897   3.120  1.3023  0.0049  3.4287
 6931SOL    HW221988   5.756   3.046   3.097 -0.7879 -0.0343  1.5662
 6932SOL     OW21989   7.255   2.620   5.052 -0.0724 -0.0364  0.2455
 6932SOL    HW121990   7.350   2.619   5.065 -0.0599  0.8940  0.3062
 6932SOL    HW221991   7.219   2.634   5.140 -0.2191  0.4853  0.1092
 6933SOL     OW21992   5.121   2.452   2.426 -0.0395  0.0414  0.1219
 6933SOL    HW121993   5.140   2.360   2.447 -0.6394 -0.0789  0.1429
 6933SOL    HW221994   5.034   2.450   2.387 -0.9153  0.8322  1.9320
 6934SOL     OW21995   3.839   7.115   8.318  0.0957  0.2962  0.1621
 6934SOL    HW121996   3.926   7.153   8.324  0.0177  0.5302 -0.1582
 6934SOL    HW221997   3.781   7.180   8.359 -0.3904  1.7383 -2.5462
 6935SOL     OW21998   1.099   5.787   5.938  0.2313 -0.0377  0.1340
 6935SOL    HW121999   1.125   5.865   5.891  0.5324 -1.2222 -1.7675
 6935SOL    HW222000   1.013   5.765   5.903 -0.2206 -0.1244  1.2460
 6936SOL     OW22001   6.137   1.594   8.395  0.4833 -0.0738 -0.0970
 6936SOL    HW122002   6.135   1.549   8.479 -0.7077 -1.4598 -0.8046
 6936SOL    HW222003   6.098   1.531   8.334  1.0890  0.9852 -1.6361
 6937SOL     OW22004   4.666   1.590   3.754 -0.1139 -0.2288  0.1890
 6937SOL    HW122005   4.628   1.612   3.839 -2.6697  0.5076 -1.0265
 6937SOL    HW222006   4.667   1.673   3.706  1.8979 -0.4999 -0.3322
 6938SOL     OW22007   7.169   5.711   0.069  0.1358 -0.3440  0.2109
 6938SOL    HW122008   7.198   5.800   0.090  1.5677 -0.6818 -0.1916
 6938SOL    HW222009   7.176   5.664   0.152  2.3794 -0.8029 -0.1614
 6939SOL     OW22010   1.366   2.291   4.857 -0.1234  0.3450  0.1907
 6939SOL    HW122011   1.382   2.227   4.788  2.0019 -0.3645  1.2499
 6939SOL    HW222012   1.447   2.342   4.862 -0.6524  1.1214  1.4109
 6940SOL     OW22013   4.557   3.896   0.140  0.0390  0.0799 -0.2346
 6940SOL    HW122014   4.536   3.950   0.216 -0.1220  0.7266 -0.7327
 6940SOL    HW222015   4.618   3.949   0.089  2.1707 -1.3514  0.6750
 6941SOL     OW22016   8.338   5.980   8.139  0.1284 -0.0649 -0.4405
 6941SOL    HW122017   8.393   6.030   8.079  0.7629 -1.2103 -0.8580
 6941SOL    HW222018   8.392   5.969   8.217  0.6714 -1.4740 -0.9744
 6942SOL     OW22019   4.320   0.223   1.686 -0.5676  0.4225 -0.2424
 6942SOL    HW122020   4.319   0.204   1.592 -1.1830  0.9739 -0.3519
 6942SOL    HW222021   4.227   0.221   1.712 -0.6209  2.4954 -0.1120
 6943SOL     OW22022   3.622   4.217   8.082  0.1088  0.1585  0.3430
 6943SOL    HW122023   3.582   4.212   7.995  1.0749 -1.5373 -0.0454
 6943SOL    HW222024   3.703   4.266   8.068  0.9471 -1.2837 -0.0187
 6944SOL     OW22025   7.415   7.293   3.780 -0.8185 -0.0616  0.5027
 6944SOL    HW122026   7.472   7.227   3.819 -0.1246  0.1833 -0.0706
 6944SOL    HW222027   7.361   7.244   3.718 -0.0866 -0.0581 -0.1521
 6945SOL     OW22028   7.517   8.559   8.011 -0.6695  0.0604 -0.6016
 6945SOL    HW122029   7.535   8.632   8.070 -1.3325  0.2501 -0.6243
 6945SOL    HW222030   7.505   8.483   8.069 -0.7795  0.1351 -0.5257
 6946SOL     OW22031   5.602   3.575   0.752  0.3866  0.2941 -0.3721
 6946SOL    HW122032   5.544   3.585   0.827  0.9622 -1.4211  0.3516
 6946SOL    HW222033   5.604   3.661   0.711 -0.1448  1.2067  1.4298
 6947SOL     OW22034   4.824   5.883   5.962 -0.8246 -0.3706  0.2895
 6947SOL    HW122035   4.775   5.823   5.906  2.9790 -0.9351 -2.8745
 6947SOL    HW222036   4.902   5.833   5.987 -0.3897  1.3462  2.7273
 6948SOL     OW22037   0.165   3.957   6.658  0.2456 -0.9019 -0.5244
 6948SOL    HW122038   0.129   3.925   6.741 -1.2044 -1.5247 -1.3502
 6948SOL    HW222039   0.256   3.980   6.678 -0.1124 -0.8966  1.2609
 6949SOL     OW22040   1.780   0.857   5.755  0.0184 -0.4609  0.0072
 6949SOL    HW122041   1.835   0.878   5.680 -0.2916  1.2492  0.2123
 6949SOL    HW222042   1.706   0.809   5.717 -0.6199  1.2075 -0.9589
 6950SOL     OW22043   0.760   1.094   2.347  0.4306 -0.9973 -0.2630
 6950SOL    HW122044   0.762   1.151   2.424 -2.7053 -0.8394 -0.1865
 6950SOL    HW222045   0.758   1.005   2.383  1.1569 -1.0285 -0.2733
 6951SOL     OW22046   5.644   7.006   2.230  0.1184  0.2431 -0.4640
 6951SOL    HW122047   5.665   7.100   2.226 -2.0370  0.7452 -2.1942
 6951SOL    HW222048   5.624   6.983   2.139  0.3198 -1.8507 -0.0173
 6952SOL     OW22049   4.024   5.466   1.057  0.3504 -0.4069  0.0407
 6952SOL    HW122050   4.023   5.455   1.152  1.4396  2.3836  0.4651
 6952SOL    HW222051   3.932   5.469   1.032  0.0373  0.3929  1.2376
 6953SOL     OW22052   4.596   5.836   7.816  0.3009  0.8924 -0.1525
 6953SOL    HW122053   4.516   5.838   7.764  0.5566  1.6721 -0.5224
 6953SOL    HW222054   4.632   5.924   7.809  1.4063  0.4519 -0.3268
 6954SOL     OW22055   7.502   0.269   3.353 -0.0981  0.0496 -0.6573
 6954SOL    HW122056   7.472   0.266   3.444  0.3234  1.4151 -0.4457
 6954SOL    HW222057   7.480   0.183   3.318 -0.4818 -0.4243  0.6660
 6955SOL     OW22058   5.089   1.647   4.622  0.0873  0.0188  0.4089
 6955SOL    HW122059   5.138   1.664   4.703  0.0540 -2.8671  1.1290
 6955SOL    HW222060   5.050   1.561   4.635 -1.6222  0.3416 -1.9167
 6956SOL     OW22061   0.149   7.870   5.714 -0.1900  0.5177  0.3688
 6956SOL    HW122062   0.171   7.827   5.631  0.2413  0.6736  0.3972
 6956SOL    HW222063   0.137   7.798   5.776  2.7188  0.4195  0.9612
 6957SOL     OW22064   1.800   3.808   7.646 -0.1519  0.1521  0.1702
 6957SOL    HW122065   1.826   3.844   7.561  1.1096 -1.2577 -0.0723
 6957SOL    HW222066   1.786   3.885   7.701  0.8201  1.0488 -0.7912
 6958SOL     OW22067   1.403   7.545   7.174 -0.2705 -0.9268  0.2489
 6958SOL    HW122068   1.402   7.472   7.111  1.4200 -0.3398 -0.5057
 6958SOL    HW222069   1.393   7.623   7.120 -1.1160 -0.5118  0.9681
 6959SOL     OW22070   5.970   0.884   3.813  0.3000  0.2467  0.0072
 6959SOL    HW122071   5.908   0.955   3.794  0.5042  0.4846  0.2184
 6959SOL    HW222072   5.995   0.850   3.727  0.2085  0.4392 -0.0964
 6960SOL     OW22073   4.099   4.432   6.066 -0.4163  0.2143 -0.2201
 6960SOL    HW122074   4.135   4.436   5.977 -0.1687 -1.5932 -0.2402
 6960SOL    HW222075   4.055   4.516   6.078  0.0062  0.7047 -1.8452
 6961SOL     OW22076   8.367   3.306   0.336  0.6935  0.6750  0.2357
 6961SOL    HW122077   8.368   3.372   0.406  0.5682 -1.6237  2.5423
 6961SOL    HW222078   8.455   3.267   0.340  0.0901 -0.7015  0.3655
 6962SOL     OW22079   3.968   3.597   4.195 -0.0860 -0.0267 -0.5370
 6962SOL    HW122080   4.053   3.555   4.186  0.1968  0.7800 -1.8464
 6962SOL    HW222081   3.913   3.555   4.129 -0.5122 -0.0475 -0.1787
 6963SOL     OW22082   7.617   0.834   6.536  0.3555 -0.0561 -0.1449
 6963SOL    HW122083   7.557   0.888   6.484 -0.4943  0.5447  1.4003
 6963SOL    HW222084   7.561   0.767   6.574  0.7454  0.1798  0.8668
 6964SOL     OW22085   2.685   2.012   6.225  0.5405 -0.2132 -0.0612
 6964SOL    HW122086   2.599   1.990   6.189  0.1711 -0.1535  0.7665
 6964SOL    HW222087   2.679   1.990   6.318  1.9182 -1.6437 -0.2716
 6965SOL     OW22088   0.009   8.241   0.040 -0.0030  1.1670  0.4231
 6965SOL    HW122089   0.038   8.233   0.131 -0.5372  2.2827  0.7047
 6965SOL    HW222090  -0.000   8.335   0.026  0.8661  1.0671 -1.0453
 6966SOL     OW22091   7.093   3.978   1.058 -0.1395 -0.1241  0.1095
 6966SOL    HW122092   7.181   4.000   1.089  0.3925 -2.0795  0.1184
 6966SOL    HW222093   7.036   3.996   1.132  0.0014  2.4497 -0.3182
 6967SOL     OW22094   7.274   0.359   6.792 -0.5180  0.4655 -0.5420
 6967SOL    HW122095   7.270   0.417   6.868 -0.0063 -0.5819  0.3087
 6967SOL    HW222096   7.214   0.288   6.812  0.4889 -0.4203 -0.5791
 6968SOL     OW22097   0.049   0.867   8.033  0.1153  0.2188 -0.4760
 6968SOL    HW122098  -0.004   0.940   8.064  1.2762  0.9752 -0.2440
 6968SOL    HW222099   0.083   0.896   7.948  1.3152  0.3409  0.0235
 6969SOL     OW22100   3.525   1.162   1.107  0.3278  0.1389  0.2063
 6969SOL    HW122101   3.544   1.174   1.200  0.1465 -0.0843  0.2713
 6969SOL    HW222102   3.456   1.096   1.104 -0.2310  0.7154 -0.0465
 6970SOL     OW22103   1.137   1.175   4.985 -0.0216 -0.1762  0.0044
 6970SOL    HW122104   1.093   1.250   5.026  1.9466  1.2291 -0.2911
 6970SOL    HW222105   1.141   1.197   4.892 -0.3484 -1.1641 -0.2564
 6971SOL     OW22106   0.144   1.087   1.035  0.1302  0.3373 -0.4493
 6971SOL    HW122107   0.185   1.168   1.004  0.0392 -0.1085 -1.8154
 6971SOL    HW222108   0.079   1.117   1.099  1.2968  1.1901  0.3834
 6972SOL     OW22109   8.122   2.909   2.408  0.0293  0.4049  0.8876
 6972SOL    HW122110   8.106   2.997   2.442 -0.1043  0.9240 -0.4973
 6972SOL    HW222111   8.087   2.910   2.319  2.5106 -0.1932 -0.1652
 6973SOL     OW22112   4.002   7.479   6.745  0.3428  0.1682  0.2260
 6973SOL    HW122113   3.985   7.417   6.816  1.4701  0.3335  0.6588
 6973SOL    HW222114   4.007   7.564   6.788  1.5782  0.2029  0.0460
 6974SOL     OW22115   5.301   1.700   6.981 -0.2369  0.0854 -0.3199
 6974SOL    HW122116   5.214   1.738   6.996 -0.7520 -0.7934 -0.9715
 6974SOL    HW222117   5.292   1.610   7.013  0.4988  0.0474 -0.2188
 6975SOL     OW22118   8.312   4.009   1.036 -0.0101  0.5910  0.4513
 6975SOL    HW122119   8.305   3.921   0.998 -0.9901  0.5233  0.7654
 6975SOL    HW222120   8.251   4.062   0.985  0.0434  0.9236  0.7364
 6976SOL     OW22121   4.601   6.879   1.745  0.2135  0.7911  0.0594
 6976SOL    HW122122   4.599   6.843   1.657 -0.2142  0.1676  0.3136
 6976SOL    HW222123   4.670   6.945   1.743  1.0000 -0.0293 -0.4288
 6977SOL     OW22124   2.453   0.229   2.987 -0.4169  0.2826  1.0442
 6977SOL    HW122125   2.389   0.171   3.030 -1.0614  1.1879  1.3426
 6977SOL    HW222126   2.530   0.174   2.974 -1.1330 -0.7413  1.0003
 6978SOL     OW22127   5.576   7.189   5.622  0.0350 -0.4622 -0.2890
 6978SOL    HW122128   5.575   7.107   5.574  2.6354 -1.2480  0.7891
 6978SOL    HW222129   5.662   7.226   5.605 -0.8139  1.7312 -0.1837
 6979SOL     OW22130   4.416   5.504   8.133  0.0561  0.1238 -0.0630
 6979SOL    HW122131   4.323   5.506   8.156 -0.4372  0.5367 -1.9174
 6979SOL    HW222132   4.439   5.411   8.137 -0.1397  0.1143  1.3993
 6980SOL     OW22133   8.284   3.799   0.227 -0.0345 -0.3575 -0.0999
 6980SOL    HW122134   8.268   3.711   0.261  2.1180 -1.1331 -0.8983
 6980SOL    HW222135   8.247   3.797   0.138  0.0235 -0.4608 -0.1224
 6981SOL     OW22136   6.336   4.188   4.090  0.3400  0.1895 -0.4037
 6981SOL    HW122137   6.262   4.127   4.083  1.6151 -1.5660  0.6381
 6981SOL    HW222138   6.298   4.274   4.070 -1.5062 -0.9265 -2.0531
 6982SOL     OW22139   4.350   3.512   7.898 -0.6764 -0.4161 -0.1766
 6982SOL    HW122140   4.441   3.495   7.875 -0.8373 -0.3193 -0.9000
 6982SOL    HW222141   4.355   3.556   7.983 -0.1457 -1.9213  0.5911
 6983SOL     OW22142   6.574   3.090   3.228 -1.0883 -0.5720  0.2043
 6983SOL    HW122143   6.486   3.121   3.248 -1.1202 -0.8381  0.4875
 6983SOL    HW222144   6.570   3.060   3.137 -0.8396  1.0341 -0.3722
 6984SOL     OW22145   3.586   7.024   1.211 -0.3260 -0.3640 -0.1386
 6984SOL    HW122146   3.672   7.065   1.212 -0.8199  0.7094  0.7027
 6984SOL    HW222147   3.600   6.937   1.250  0.2836  0.0240  0.5266
 6985SOL     OW22148   0.702   3.702   4.473 -0.5537  0.4028  0.2317
 6985SOL    HW122149   0.671   3.773   4.529  1.0294 -0.1711  1.9508
 6985SOL    HW222150   0.790   3.683   4.505 -0.2786 -1.2117 -1.3012
 6986SOL     OW22151   0.639   0.010   4.728 -0.1724  0.4723  0.0390
 6986SOL    HW122152   0.614   0.040   4.816  2.1666  2.8950  0.0057
 6986SOL    HW222153   0.728   0.044   4.716  0.1596 -1.1054 -2.7162
 6987SOL     OW22154   2.747   3.615   3.890  0.2869 -0.1115 -0.4617
 6987SOL    HW122155   2.800   3.680   3.935 -1.0702  0.0676  0.9627
 6987SOL    HW222156   2.807   3.542   3.872  0.7792 -0.4332  2.1975
 6988SOL     OW22157   0.575   1.884   3.261 -0.5854  0.7566 -0.1509
 6988SOL    HW122158   0.655   1.931   3.286 -1.0104  1.5264 -0.2030
 6988SOL    HW222159   0.504   1.943   3.286 -1.1634 -0.1484  0.3708
 6989SOL     OW22160   6.727   5.346   8.342 -0.0608  0.1539  0.1271
 6989SOL    HW122161   6.638   5.370   8.316  0.1752 -1.0551 -1.9703
 6989SOL    HW222162   6.715   5.289   8.418 -1.0705  0.0274 -0.1162
 6990SOL     OW22163   3.005   3.295   8.093  0.1025  0.7555 -0.3179
 6990SOL    HW122164   3.059   3.318   8.017  0.4696 -1.2574 -0.7242
 6990SOL    HW222165   2.915   3.306   8.062  0.2123 -1.0998 -1.4926
 6991SOL     OW22166   1.790   0.424   7.963  0.4676 -0.3549  0.0008
 6991SOL    HW122167   1.874   0.410   7.921  1.2399 -0.5944  1.5628
 6991SOL    HW222168   1.793   0.515   7.993 -0.2332 -0.0643 -0.7694
 6992SOL     OW22169   6.264   7.976   4.092 -0.7358  0.1179  0.3045
 6992SOL    HW122170   6.266   7.888   4.129  0.7518  0.5556  1.3653
 6992SOL    HW222171   6.344   8.018   4.124 -0.5990  1.3465 -1.4614
 6993SOL     OW22172   7.133   1.381   6.465  0.3023 -0.3889 -0.3724
 6993SOL    HW122173   7.224   1.355   6.451  0.9665  1.7907 -0.3370
 6993SOL    HW222174   7.108   1.429   6.386 -0.0830  0.9167  0.5079
 6994SOL     OW22175   5.357   1.233   7.055 -0.2482 -0.3880  0.2376
 6994SOL    HW122176   5.324   1.179   7.127 -0.9682  1.0623  1.0460
 6994SOL    HW222177   5.376   1.171   6.985 -2.0447 -1.5929  0.7448
 6995SOL     OW22178   3.945   1.553   0.227  0.2576 -0.2992 -0.0072
 6995SOL    HW122179   3.979   1.498   0.157  1.6308  2.2435 -1.4779
 6995SOL    HW222180   3.987   1.638   0.215 -0.9206  0.8341  2.7739
 6996SOL     OW22181   1.208   1.035   2.511 -0.1224 -0.3652  0.1636
 6996SOL    HW122182   1.128   0.997   2.547 -0.0884 -0.2429  0.3664
 6996SOL    HW222183   1.195   1.032   2.416  0.1774 -1.5435  0.1507
 6997SOL     OW22184   0.136   2.781   5.823 -0.0535  0.6003  0.0499
 6997SOL    HW122185   0.077   2.827   5.763 -2.1168 -1.6880  0.1705
 6997SOL    HW222186   0.189   2.725   5.766 -0.1995  0.3505  0.1565
 6998SOL     OW22187   5.448   3.586   7.037 -0.6702 -0.0359 -0.2144
 6998SOL    HW122188   5.434   3.498   7.000 -1.5233 -0.2552  0.5838
 6998SOL    HW222189   5.537   3.583   7.070 -0.0162  0.0405 -1.8686
 6999SOL     OW22190   7.063   1.845   5.576  0.0898 -0.0697 -0.5078
 6999SOL    HW122191   6.985   1.795   5.602 -0.2637  0.2088 -1.0286
 6999SOL    HW222192   7.134   1.781   5.579 -0.3888 -0.6600 -1.3296
 7000SOL     OW22193   3.864   2.925   6.447 -0.1174 -0.7106  0.1140
 7000SOL    HW122194   3.935   2.885   6.397 -1.7780 -2.8478 -0.6906
 7000SOL    HW222195   3.878   3.019   6.437  1.9292 -1.0635 -0.9494
 7001SOL     OW22196   2.011   8.031   4.228  0.5856 -0.2000  0.0452
 7001SOL    HW122197   1.966   8.056   4.148  2.6313  0.7310 -0.8827
 7001SOL    HW222198   1.989   8.100   4.290  0.5566  0.1251 -0.3232
 7002SOL     OW22199   2.939   0.385   7.161  0.0782  0.3325  0.2312
 7002SOL    HW122200   2.886   0.362   7.084  0.6660  0.6172 -0.2729
 7002SOL    HW222201   2.975   0.471   7.139  0.4328  0.3150  0.7377
 7003SOL     OW22202   6.039   6.393   0.137 -0.3726  0.0277 -0.2471
 7003SOL    HW122203   6.092   6.446   0.077 -0.1659 -1.6831 -1.6650
 7003SOL    HW222204   6.104   6.343   0.187 -0.5918 -0.7408 -0.7170
 7004SOL     OW22205   5.916   6.669   8.205  0.0241 -0.0351 -0.2226
 7004SOL    HW122206   5.925   6.583   8.245 -0.6129  0.0765  0.1607
 7004SOL    HW222207   5.822   6.686   8.204 -0.0542 -0.2684 -2.2489
 7005SOL     OW22208   8.460   1.217   5.580  0.2783  0.2077 -0.5029
 7005SOL    HW122209   8.487   1.136   5.538  0.2122  0.4473 -1.0158
 7005SOL    HW222210   8.539   1.270   5.584  0.4823 -0.1417  0.4634
 7006SOL     OW22211   6.706   0.337   4.303  0.2483 -0.1914  0.3805
 7006SOL    HW122212   6.800   0.323   4.299  0.3538  0.1406  1.5111
 7006SOL    HW222213   6.678   0.297   4.385 -0.9027 -1.8419 -0.7303
 7007SOL     OW22214   5.301   0.703   5.564 -0.0427 -0.0250  0.0641
 7007SOL    HW122215   5.329   0.673   5.650 -0.4527  0.1429  0.2611
 7007SOL    HW222216   5.270   0.624   5.520  1.9818 -0.4624 -0.6740
 7008SOL     OW22217   4.730   2.090   7.170 -0.4864  0.0600 -0.4952
 7008SOL    HW122218   4.683   2.054   7.095 -2.6948  1.9849 -0.1388
 7008SOL    HW222219   4.779   2.164   7.135 -0.8470  0.4454 -0.1968
 7009SOL     OW22220   6.335   6.189   1.718  0.1759  0.3734 -0.3299
 7009SOL    HW122221   6.384   6.267   1.744  1.0959 -0.7772  1.6478
 7009SOL    HW222222   6.376   6.161   1.636  0.3187  1.5260 -0.6715
 7010SOL     OW22223   5.583   4.822   4.660 -0.0006  0.6524 -0.1081
 7010SOL    HW122224   5.531   4.753   4.620  0.7637  1.3188 -2.4012
 7010SOL    HW222225   5.540   4.903   4.635  1.6299  1.1767 -1.3963
 7011SOL     OW22226   2.715   8.510   6.512 -0.2576 -0.2473  0.5626
 7011SOL    HW122227   2.730   8.455   6.588 -1.0796 -0.9860  0.2091
 7011SOL    HW222228   2.622   8.533   6.516 -0.0986  0.4738  0.2839
 7012SOL     OW22229   1.416   7.791   2.075 -0.1940 -0.2849 -0.2252
 7012SOL    HW122230   1.335   7.808   2.028  1.0898  0.5241 -2.2874
 7012SOL    HW222231   1.428   7.696   2.070 -1.0471 -0.4247  0.2074
 7013SOL     OW22232   5.034   4.256   0.277  0.2657 -0.1226  0.3039
 7013SOL    HW122233   5.069   4.260   0.188  0.3404 -4.4822 -0.0827
 7013SOL    HW222234   4.940   4.243   0.266  0.1296  0.2819  0.9185
 7014SOL     OW22235   7.748   1.511   2.793  0.5932 -0.3203 -0.4550
 7014SOL    HW122236   7.796   1.431   2.773 -0.3597 -1.2806  0.9266
 7014SOL    HW222237   7.769   1.531   2.884 -0.1156  0.3172 -0.4175
 7015SOL     OW22238   6.438   7.514   5.461 -0.2034  0.0694  0.1777
 7015SOL    HW122239   6.505   7.558   5.409  0.6153  1.1112  2.0031
 7015SOL    HW222240   6.488   7.461   5.523 -1.0837  0.1805  1.0035
 7016SOL     OW22241   0.538   8.464   7.254  0.0626 -0.5465 -0.3575
 7016SOL    HW122242   0.510   8.491   7.167 -0.8665 -2.1209 -0.5881
 7016SOL    HW222243   0.463   8.417   7.290  1.3408 -2.2431  0.2338
 7017SOL     OW22244   7.029   2.954   3.521  0.4937  0.0850  0.6684
 7017SOL    HW122245   7.122   2.937   3.536  0.7231  0.6350 -0.0318
 7017SOL    HW222246   7.016   3.043   3.554  0.7246  0.8276 -1.0792
 7018SOL     OW22247   6.639   5.539   2.976 -0.1258  0.2119 -0.0571
 7018SOL    HW122248   6.568   5.581   3.025 -0.5752 -0.8182  0.1976
 7018SOL    HW222249   6.692   5.612   2.944 -0.3942  0.9442  1.1033
 7019SOL     OW22250   6.164   6.860   2.755  0.0193 -0.1065 -0.4024
 7019SOL    HW122251   6.103   6.909   2.810  0.1787 -0.0019 -0.3150
 7019SOL    HW222252   6.231   6.924   2.731  0.0377 -0.1940 -0.5843
 7020SOL     OW22253   5.648   1.094   1.353  0.0910  0.5450 -0.1134
 7020SOL    HW122254   5.648   1.125   1.443  1.4130  0.5874 -0.1040
 7020SOL    HW222255   5.740   1.072   1.336 -0.5193 -1.8530 -0.6262
 7021SOL     OW22256   1.538   3.755   3.404 -0.9360 -0.1816  0.4901
 7021SOL    HW122257   1.502   3.780   3.318 -1.9967  0.0391  0.9842
 7021SOL    HW222258   1.523   3.661   3.409 -1.2490 -0.1265  0.6025
 7022SOL     OW22259   6.003   5.043   0.700  0.6795 -0.0767  1.0733
 7022SOL    HW122260   6.094   5.034   0.674  0.4173 -0.7696  0.3384
 7022SOL    HW222261   5.998   4.998   0.785  1.0299  0.0116  1.1423
 7023SOL     OW22262   3.049   6.562   1.285 -0.3533 -0.0697  0.2015
 7023SOL    HW122263   2.981   6.620   1.317 -0.7259  0.4802 -1.4749
 7023SOL    HW222264   3.129   6.615   1.286 -0.5720  0.3022 -0.7312
 7024SOL     OW22265   2.380   7.967   0.303 -0.2233  0.3143  0.3512
 7024SOL    HW122266   2.376   7.871   0.306 -2.4207  0.3252  3.3899
 7024SOL    HW222267   2.470   7.988   0.326  0.4755 -0.9705 -1.0312
 7025SOL     OW22268   4.366   8.541   5.509 -0.0511 -0.3277 -0.0238
 7025SOL    HW122269   4.296   8.605   5.500  0.8205  1.0839  2.2831
 7025SOL    HW222270   4.322   8.460   5.536 -0.8955  0.2607  0.4188
 7026SOL     OW22271   1.574   1.057   7.439 -0.3159 -0.3127 -0.0375
 7026SOL    HW122272   1.612   0.972   7.463 -1.4050 -0.3700  1.7048
 7026SOL    HW222273   1.493   1.033   7.393  0.6197 -0.1824 -1.8460
 7027SOL     OW22274   3.572   2.851   1.195 -0.1981  0.3501  0.2125
 7027SOL    HW122275   3.525   2.770   1.214  0.7193  0.2375  2.2636
 7027SOL    HW222276   3.519   2.894   1.128 -1.1886 -1.4925 -0.2672
 7028SOL     OW22277   8.063   4.926   3.069  0.4871  0.7502 -0.5095
 7028SOL    HW122278   8.037   4.985   3.139  2.4044  0.3394  0.5977
 7028SOL    HW222279   8.133   4.873   3.106  1.1428  0.0915 -2.5524
 7029SOL     OW22280   7.247   7.005   1.087  0.3211  0.7088  0.1447
 7029SOL    HW122281   7.299   6.931   1.117 -1.4126 -0.1144  1.2597
 7029SOL    HW222282   7.196   6.971   1.013 -0.5106  0.7468  0.6873
 7030SOL     OW22283   1.653   3.585   1.247 -0.3702 -0.3164 -0.0461
 7030SOL    HW122284   1.627   3.640   1.174  1.4583  0.2557 -0.3079
 7030SOL    HW222285   1.573   3.537   1.271 -0.7617 -1.4242 -3.1530
 7031SOL     OW22286   2.842   5.648   1.083  0.9979 -0.8608  0.0768
 7031SOL    HW122287   2.789   5.711   1.033  0.8892 -1.2157 -0.2580
 7031SOL    HW222288   2.836   5.679   1.174  1.2140 -0.2016 -0.1285
 7032SOL     OW22289   3.546   1.483   7.550 -0.1301 -0.3541  0.2170
 7032SOL    HW122290   3.559   1.552   7.485 -2.1307 -0.6729 -0.6030
 7032SOL    HW222291   3.547   1.528   7.634  0.9106  0.3008 -0.1192
 7033SOL     OW22292   8.420   0.570   8.120  0.1907  0.7199 -0.3707
 7033SOL    HW122293   8.500   0.615   8.146 -0.6648  1.2408  1.4567
 7033SOL    HW222294   8.451   0.496   8.067  1.9381  0.3516  1.0747
 7034SOL     OW22295   2.485   0.868   7.127 -0.1387 -0.1444 -1.0421
 7034SOL    HW122296   2.443   0.830   7.204 -0.0954 -0.7939 -1.3285
 7034SOL    HW222297   2.419   0.929   7.092 -0.5905 -0.6673 -1.1160
 7035SOL     OW22298   6.169   2.655   3.373 -0.1063 -0.2854 -0.2230
 7035SOL    HW122299   6.113   2.690   3.442  0.2481 -1.8603  0.9159
 7035SOL    HW222300   6.130   2.687   3.291 -1.3723  0.4390  0.6418
 7036SOL     OW22301   4.051   7.353   3.240  0.6349 -0.0818 -0.4263
 7036SOL    HW122302   4.010   7.408   3.173  3.8273  1.7867 -1.0350
 7036SOL    HW222303   4.013   7.385   3.322 -1.3562 -0.5766 -1.1022
 7037SOL     OW22304   3.744   7.592   8.388  0.1002  0.7064  0.2487
 7037SOL    HW122305   3.716   7.504   8.410  3.1852 -0.4883 -0.1405
 7037SOL    HW222306   3.749   7.592   8.292 -0.3663  1.4923  0.2144
 7038SOL     OW22307   1.214   1.701   1.599 -0.1990  0.1578 -0.1328
 7038SOL    HW122308   1.215   1.758   1.522 -2.0694 -0.1207 -0.3998
 7038SOL    HW222309   1.153   1.743   1.660  0.0729 -0.4358  0.5588
 7039SOL     OW22310   2.969   7.698   3.152 -0.6672  0.1587 -0.9079
 7039SOL    HW122311   3.056   7.727   3.124  0.0112 -0.9890 -0.0717
 7039SOL    HW222312   2.918   7.779   3.159  0.4283  0.8885 -1.0689
 7040SOL     OW22313   8.259   5.782   2.482  0.2352  0.1836  0.2500
 7040SOL    HW122314   8.211   5.865   2.480  1.1283  0.8224  2.5479
 7040SOL    HW222315   8.339   5.800   2.433  0.1594  0.4863  0.2339
 7041SOL     OW22316   6.037   3.737   4.530 -0.1222  0.0933 -0.3891
 7041SOL    HW122317   6.072   3.667   4.585 -0.6421  0.7315  0.7773
 7041SOL    HW222318   6.113   3.770   4.482  0.2243 -0.8919 -0.5588
 7042SOL     OW22319   3.459   1.050   4.459 -0.5612 -0.2298 -0.1585
 7042SOL    HW122320   3.415   1.030   4.377 -1.5766 -1.4777  0.6542
 7042SOL    HW222321   3.388   1.063   4.522  0.2015  0.5435  0.5700
 7043SOL     OW22322   3.270   2.184   1.565  0.5645 -0.2511  0.4776
 7043SOL    HW122323   3.332   2.112   1.579 -2.0835 -2.7879  0.0686
 7043SOL    HW222324   3.232   2.200   1.651  0.8885  0.4770  0.4976
 7044SOL     OW22325   3.156   2.298   4.328 -0.5026  0.1764  0.2658
 7044SOL    HW122326   3.221   2.302   4.258 -1.4210 -1.8828 -0.7883
 7044SOL    HW222327   3.095   2.369   4.307  0.9149  1.6070  0.8130
 7045SOL     OW22328   3.002   3.528   1.937  0.8123 -0.3398  0.3208
 7045SOL    HW122329   3.086   3.485   1.918  1.7696  1.3006  0.6501
 7045SOL    HW222330   3.023   3.621   1.940 -1.0837  0.1241  0.2217
 7046SOL     OW22331   2.906   5.952   0.200  0.3328 -0.7652  0.0304
 7046SOL    HW122332   2.915   6.043   0.230 -1.5029 -0.3276 -0.6292
 7046SOL    HW222333   2.948   5.951   0.114  3.4919 -1.4611  1.4161
 7047SOL     OW22334   2.813   1.579   7.644 -0.3861 -0.5383  0.3688
 7047SOL    HW122335   2.885   1.619   7.693 -0.6514 -1.7176  1.7983
 7047SOL    HW222336   2.849   1.563   7.557  0.6564  0.0780  0.6702
 7048SOL     OW22337   2.374   6.422   2.920  0.7210  0.1245 -0.1497
 7048SOL    HW122338   2.313   6.489   2.890 -2.2504 -2.4291 -0.3960
 7048SOL    HW222339   2.375   6.356   2.850  2.2890 -0.8528  0.7181
 7049SOL     OW22340   3.012   3.799   1.915 -0.0002  0.1080 -0.0608
 7049SOL    HW122341   3.030   3.857   1.840  0.9441  2.5528  1.9155
 7049SOL    HW222342   2.918   3.811   1.932 -0.0419  0.1866 -0.3414
 7050SOL     OW22343   6.558   7.636   3.025  0.4763  0.3854 -0.4273
 7050SOL    HW122344   6.627   7.655   3.088 -0.9207  0.4451  1.1505
 7050SOL    HW222345   6.500   7.575   3.071 -1.6815  1.9980 -0.8577
 7051SOL     OW22346   1.306   1.647   0.716 -0.4016 -0.5015  0.2705
 7051SOL    HW122347   1.256   1.663   0.796 -0.8944 -2.0719  0.3235
 7051SOL    HW222348   1.397   1.648   0.744 -0.5334 -0.2669  0.7010
 7052SOL     OW22349   2.485   7.855   5.437  0.4015 -0.5356 -0.0735
 7052SOL    HW122350   2.563   7.897   5.402  0.4180  0.1999  0.8120
 7052SOL    HW222351   2.420   7.862   5.367 -0.1012  2.4239  0.5672
 7053SOL     OW22352   5.143   4.521   4.097  0.3356  0.1104  0.1924
 7053SOL    HW122353   5.103   4.584   4.037  1.4121  0.7169  0.0850
 7053SOL    HW222354   5.075   4.506   4.164 -0.7912 -0.4101 -1.0271
 7054SOL     OW22355   4.682   6.511   6.485  0.4933 -0.5145  0.2803
 7054SOL    HW122356   4.611   6.447   6.480  0.1972 -0.2130  0.5696
 7054SOL    HW222357   4.743   6.475   6.549 -0.1117 -0.0853  1.1112
 7055SOL     OW22358   5.566   1.825   5.814  0.5197 -0.9121  0.0056
 7055SOL    HW122359   5.604   1.746   5.851 -0.4902 -1.0150  0.8656
 7055SOL    HW222360   5.637   1.864   5.763  1.7800 -1.0755  1.5575
 7056SOL     OW22361   7.367   2.909   7.251 -0.3645 -0.2936 -0.1703
 7056SOL    HW122362   7.313   2.939   7.177 -1.0371 -1.7939 -0.3150
 7056SOL    HW222363   7.308   2.855   7.303  0.5782 -0.6586  0.5430
 7057SOL     OW22364   2.613   0.705   4.625 -0.3274  0.0999  0.7562
 7057SOL    HW122365   2.702   0.686   4.656 -0.0997  0.2342  0.1920
 7057SOL    HW222366   2.626   0.757   4.546 -0.9121  0.1819  0.7125
 7058SOL     OW22367   5.979   5.840   2.394 -0.2193 -0.6168  0.2707
 7058SOL    HW122368   5.936   5.849   2.308 -0.9561 -0.6174  0.6277
 7058SOL    HW222369   5.907   5.845   2.457  0.3137 -0.6452  0.8917
 7059SOL     OW22370   1.133   0.960   3.945  0.2947 -0.4789 -0.3969
 7059SOL    HW122371   1.069   1.006   3.998 -0.4003 -0.2024 -1.4365
 7059SOL    HW222372   1.107   0.868   3.950 -0.5206 -0.3109 -1.2247
 7060SOL     OW22373   7.271   0.715   3.975  0.1324 -0.0118  0.3128
 7060SOL    HW122374   7.303   0.740   3.888  0.2190 -1.9279 -0.2458
 7060SOL    HW222375   7.177   0.701   3.963  0.1736 -0.4377  0.4923
 7061SOL     OW22376   3.913   6.478   2.680  0.1677 -0.2934  0.4971
 7061SOL    HW122377   3.864   6.448   2.604 -1.8550 -0.9971  1.9996
 7061SOL    HW222378   3.922   6.573   2.667 -2.6942  0.1004  0.6520
 7062SOL     OW22379   5.821   4.247   8.097  0.4476 -0.0626 -0.1366
 7062SOL    HW122380   5.843   4.222   8.007  1.1539 -0.0147  0.0170
 7062SOL    HW222381   5.880   4.320   8.117  0.0335  0.1762  0.2360
 7063SOL     OW22382   1.303   4.234   0.514  0.5848  0.1987 -0.2174
 7063SOL    HW122383   1.392   4.200   0.504  0.5781  0.5080 -1.4665
 7063SOL    HW222384   1.300   4.311   0.457 -1.2008 -1.2317 -2.1943
 7064SOL     OW22385   5.007   1.078   0.981 -0.0903  0.4590 -0.0188
 7064SOL    HW122386   4.963   1.031   1.052  0.3851  0.1032  0.0453
 7064SOL    HW222387   5.023   1.012   0.914 -0.1163  0.6952 -0.2599
 7065SOL     OW22388   2.051   8.079   2.271 -0.3555 -0.6641  0.1777
 7065SOL    HW122389   2.098   8.036   2.343  0.6147  1.2061  0.7083
 7065SOL    HW222390   1.968   8.108   2.311 -0.2796 -0.5610  0.2603
 7066SOL     OW22391   7.756   4.585   0.381  0.1159 -0.1888  0.5623
 7066SOL    HW122392   7.735   4.678   0.391  0.8299  0.0457 -0.0665
 7066SOL    HW222393   7.750   4.569   0.286  0.3373 -0.7026  0.6313
 7067SOL     OW22394   4.726   2.090   0.667  0.7251 -0.0065  0.6384
 7067SOL    HW122395   4.750   2.179   0.642  2.1359 -0.8106 -1.1303
 7067SOL    HW222396   4.757   2.081   0.757 -0.6666  1.6808  1.3369
 7068SOL     OW22397   4.120   3.834   3.446 -0.1017  0.2438  0.2860
 7068SOL    HW122398   4.053   3.884   3.399 -0.0567  1.0817  1.0974
 7068SOL    HW222399   4.072   3.790   3.516  0.0033 -0.1729  0.1036
 7069SOL     OW22400   0.330   5.958   3.473  0.4916 -0.0584  0.5671
 7069SOL    HW122401   0.262   5.895   3.496  0.1830  0.4584  1.0908
 7069SOL    HW222402   0.394   5.950   3.544  2.0839 -2.0665 -0.9657
 7070SOL     OW22403   2.029   1.045   4.488 -0.1822  0.3425 -0.6433
 7070SOL    HW122404   1.996   1.048   4.577 -0.7281  0.8558 -0.8562
 7070SOL    HW222405   2.115   1.087   4.492  0.5163 -1.0765 -0.0695
 7071SOL     OW22406   3.618   8.042   1.202  0.0786 -0.0082  0.4786
 7071SOL    HW122407   3.639   7.949   1.191  0.9014  0.3800 -1.5134
 7071SOL    HW222408   3.543   8.057   1.145  0.5254  0.7390  0.0698
 7072SOL     OW22409   1.764   5.363   5.439 -0.1469  0.5713  0.0239
 7072SOL    HW122410   1.804   5.356   5.353 -0.7467  0.4093 -0.2448
 7072SOL    HW222411   1.691   5.424   5.428 -0.3876  0.3502  0.3501
 7073SOL     OW22412   5.887   3.023   3.898  0.5754 -0.8090 -0.5302
 7073SOL    HW122413   5.826   3.039   3.826 -0.2228 -1.6774 -0.0791
 7073SOL    HW222414   5.911   2.931   3.889 -0.4800 -1.2832  0.9607
 7074SOL     OW22415   4.828   2.912   2.550  0.4463 -0.1787  0.1509
 7074SOL    HW122416   4.760   2.846   2.560 -1.3773  1.7914  1.4014
 7074SOL    HW222417   4.908   2.869   2.582 -0.1781 -2.4367 -1.1081
 7075SOL     OW22418   1.976   2.671   8.208  0.0185  0.0575  0.9681
 7075SOL    HW122419   2.036   2.651   8.137 -0.1542  2.5048  0.0357
 7075SOL    HW222420   1.889   2.663   8.169 -0.0978  0.7739  1.0661
 7076SOL     OW22421   8.039   1.271   3.212 -0.2035  0.3994  0.4532
 7076SOL    HW122422   8.103   1.207   3.180 -0.8046 -0.7771  1.5084
 7076SOL    HW222423   7.989   1.295   3.134  0.0870 -0.3702  0.0162
 7077SOL     OW22424   0.936   3.496   4.803  0.1955  0.2968  0.3193
 7077SOL    HW122425   0.912   3.486   4.895 -2.4738 -1.9405 -0.5039
 7077SOL    HW222426   1.028   3.470   4.800 -0.4877 -2.8084  1.9678
 7078SOL     OW22427   4.981   6.944   3.723  0.0221  0.2214 -0.5841
 7078SOL    HW122428   4.966   6.918   3.632 -1.3653  1.1212 -0.6385
 7078SOL    HW222429   4.893   6.953   3.760  0.5679  0.2491  0.7340
 7079SOL     OW22430   3.545   1.898   3.679 -0.1441  0.0783 -0.1353
 7079SOL    HW122431   3.507   1.963   3.739 -0.1730 -1.2676  1.3642
 7079SOL    HW222432   3.498   1.912   3.596  0.4473  2.5008 -0.1351
 7080SOL     OW22433   1.844   0.352   4.153  0.0083 -0.3809 -0.0235
 7080SOL    HW122434   1.911   0.300   4.110  0.8698 -2.2846  3.2575
 7080SOL    HW222435   1.824   0.304   4.234 -1.5609  2.7335  1.6454
 7081SOL     OW22436   1.796   8.261   7.796  0.4486  0.0584  0.1293
 7081SOL    HW122437   1.731   8.325   7.767 -1.2997 -0.9318  1.6092
 7081SOL    HW222438   1.796   8.269   7.892  2.5839  0.0474  0.1687
 7082SOL     OW22439   6.261   2.378   8.409  0.5028 -0.0921 -0.2767
 7082SOL    HW122440   6.315   2.299   8.415  0.2388 -0.5674 -2.8325
 7082SOL    HW222441   6.267   2.404   8.317 -1.2313  1.5763  0.0186
 7083SOL     OW22442   2.893   0.457   8.555  0.0803  0.1961 -0.0735
 7083SOL    HW122443   2.946   0.468   8.476  0.8081  1.6916  0.6013
 7083SOL    HW222444   2.847   0.540   8.565 -0.3772 -0.1544  0.8298
 7084SOL     OW22445   6.393   3.600   7.281 -0.0478 -0.1984 -0.1827
 7084SOL    HW122446   6.462   3.656   7.244 -1.8352  2.0975 -0.2712
 7084SOL    HW222447   6.368   3.644   7.363 -1.9571 -0.4768 -0.5693
 7085SOL     OW22448   1.282   6.899   6.781  0.4755  0.0024 -0.9169
 7085SOL    HW122449   1.216   6.968   6.784 -0.6002 -1.0213  0.1324
 7085SOL    HW222450   1.366   6.945   6.785 -0.1479  1.2061  3.3556
 7086SOL     OW22451   4.264   2.921   2.921 -0.1116  0.6130 -0.2668
 7086SOL    HW122452   4.193   2.985   2.922 -0.1892  0.5919  2.0284
 7086SOL    HW222453   4.221   2.836   2.917 -0.0454  0.6303 -2.2191
 7087SOL     OW22454   7.602   1.262   8.231  0.1042 -0.5679 -0.0898
 7087SOL    HW122455   7.557   1.199   8.287 -0.1758 -1.5018 -1.3368
 7087SOL    HW222456   7.589   1.230   8.142  0.2237  1.0769 -0.7481
 7088SOL     OW22457   5.138   8.411   6.355 -0.0471 -0.1779 -0.2954
 7088SOL    HW122458   5.193   8.372   6.287 -0.0191 -1.0226  0.1972
 7088SOL    HW222459   5.179   8.496   6.373  1.5625 -1.1063  0.6023
 7089SOL     OW22460   4.025   7.083   1.559  0.1831 -0.7788  0.1374
 7089SOL    HW122461   4.036   7.063   1.652  0.7364 -1.2715 -0.0271
 7089SOL    HW222462   3.957   7.023   1.529 -1.8794  1.1137  0.7743
 7090SOL     OW22463   3.016   1.599   6.462 -0.1710  0.0379  1.0911
 7090SOL    HW122464   3.048   1.509   6.457 -1.6164 -0.4547 -0.1043
 7090SOL    HW222465   3.043   1.629   6.549  1.7575 -0.9686  0.8979
 7091SOL     OW22466   5.746   0.647   5.771  0.5298 -0.4125 -0.1801
 7091SOL    HW122467   5.825   0.693   5.744  1.3416 -1.5210  0.2547
 7091SOL    HW222468   5.724   0.685   5.856  1.1600 -0.7808  0.1492
 7092SOL     OW22469   0.844   4.163   0.848 -0.3141  0.1172  0.1417
 7092SOL    HW122470   0.917   4.210   0.810  0.4861  0.7846  2.3288
 7092SOL    HW222471   0.771   4.178   0.788  1.1684 -0.0884 -1.7823
 7093SOL     OW22472   8.604   6.180   2.508 -0.1164 -0.6209 -0.3761
 7093SOL    HW122473   8.519   6.161   2.468 -0.0125 -1.3874 -0.2524
 7093SOL    HW222474   8.609   6.120   2.582  0.1837  0.0031  0.1090
 7094SOL     OW22475   5.110   1.349   7.338  0.3015  0.1559  0.2439
 7094SOL    HW122476   5.034   1.343   7.396 -0.9631  2.0314 -1.0843
 7094SOL    HW222477   5.152   1.432   7.362  0.4362  0.3748 -0.7146
 7095SOL     OW22478   5.419   4.933   4.878  0.4483 -0.0447 -0.3558
 7095SOL    HW122479   5.504   4.951   4.917  0.9446 -1.1021 -0.9153
 7095SOL    HW222480   5.435   4.932   4.784  0.1763 -1.7632 -0.4331
 7096SOL     OW22481   7.478   1.213   3.646  0.3990 -0.1039  0.1900
 7096SOL    HW122482   7.532   1.268   3.590  1.1702 -0.6175  0.4206
 7096SOL    HW222483   7.449   1.142   3.589  1.7369 -0.9975  0.5793
 7097SOL     OW22484   0.887   0.584   7.317  0.0073 -0.0941  0.0973
 7097SOL    HW122485   0.806   0.560   7.272 -0.5196  0.0882  0.9220
 7097SOL    HW222486   0.899   0.516   7.383 -0.6355  1.0005  1.3885
 7098SOL     OW22487   0.391   1.058   8.147  0.0581 -0.0557 -0.5149
 7098SOL    HW122488   0.351   1.094   8.068 -1.6226  1.1071  0.8130
 7098SOL    HW222489   0.351   0.972   8.157 -1.1540  0.5515  0.0546
 7099SOL     OW22490   7.735   0.736   8.066 -0.2698 -0.2276 -0.6522
 7099SOL    HW122491   7.814   0.721   8.118  2.5367  1.3768 -4.0002
 7099SOL    HW222492   7.746   0.680   7.989 -1.7698  0.9391 -1.7849
 7100SOL     OW22493   2.549   8.537   4.372 -0.7731  0.0044 -0.1814
 7100SOL    HW122494   2.519   8.628   4.377 -0.6662  0.1280 -1.5077
 7100SOL    HW222495   2.627   8.540   4.317 -1.8001 -1.1019 -1.8023
 7101SOL     OW22496   8.434   8.481   1.743  0.2804 -0.1514  0.5110
 7101SOL    HW122497   8.413   8.572   1.765  1.0282 -0.0504  0.8322
 7101SOL    HW222498   8.482   8.449   1.820 -1.2232 -1.2680  1.0318
 7102SOL     OW22499   4.019   4.130   1.346 -0.1722  0.7439 -0.0575
 7102SOL    HW122500   3.968   4.054   1.373  1.8635 -1.3666 -1.7666
 7102SOL    HW222501   4.096   4.129   1.403  0.0307  1.3386 -0.3099
 7103SOL     OW22502   3.673   6.137   1.058 -0.0177  0.4015 -0.4958
 7103SOL    HW122503   3.756   6.120   1.103 -1.0105  1.2577  1.8738
 7103SOL    HW222504   3.643   6.220   1.095 -3.4182 -1.3648  1.2642
 7104SOL     OW22505   1.781   3.389   6.400 -0.0781  0.1264  0.1064
 7104SOL    HW122506   1.756   3.423   6.486 -0.3965 -1.0653  0.5079
 7104SOL    HW222507   1.698   3.364   6.359  0.1370 -0.0536 -0.2221
 7105SOL     OW22508   5.319   6.140   8.202  0.6069 -0.1003 -0.3301
 7105SOL    HW122509   5.257   6.105   8.138  0.1462 -0.6817  0.4099
 7105SOL    HW222510   5.318   6.076   8.273  0.7809  0.7403  0.4416
 7106SOL     OW22511   5.743   2.719   6.660 -0.0252 -0.3329 -0.2373
 7106SOL    HW122512   5.671   2.696   6.719 -0.6298  1.1004 -0.3574
 7106SOL    HW222513   5.764   2.810   6.683 -0.0900  0.1730 -1.9984
 7107SOL     OW22514   7.723   2.068   5.622 -0.3004 -0.2611 -0.5011
 7107SOL    HW122515   7.773   2.113   5.554  1.0836  0.4218  0.8936
 7107SOL    HW222516   7.717   2.131   5.693  0.5237 -1.7926  0.9970
 7108SOL     OW22517   7.896   2.867   1.576 -0.0330  0.1248  0.3864
 7108SOL    HW122518   7.980   2.828   1.600 -0.6721 -1.6831 -0.1137
 7108SOL    HW222519   7.837   2.792   1.566 -1.8889  1.3808  1.3887
 7109SOL     OW22520   3.864   1.592   7.236 -0.3491 -0.8630 -0.5814
 7109SOL    HW122521   3.837   1.674   7.276  1.1286 -0.1647 -0.9549
 7109SOL    HW222522   3.797   1.575   7.169 -1.4292 -0.7202  0.4295
 7110SOL     OW22523   6.309   6.733   2.990  0.1356 -0.0720 -0.1349
 7110SOL    HW122524   6.233   6.756   2.937  0.2060  0.3648 -0.0529
 7110SOL    HW222525   6.333   6.815   3.034 -0.0911 -0.4846  0.7836
 7111SOL     OW22526   3.372   6.612   5.973 -0.1064 -0.2578  0.6219
 7111SOL    HW122527   3.346   6.621   6.064  1.7281  0.4617  1.1206
 7111SOL    HW222528   3.467   6.601   5.977 -0.0231 -0.4239 -1.1922
 7112SOL     OW22529   4.364   1.594   8.249  0.5608 -0.3558  0.3479
 7112SOL    HW122530   4.426   1.654   8.206 -1.9184  0.1073 -2.9696
 7112SOL    HW222531   4.389   1.507   8.218 -2.2336  0.0980 -3.9797
 7113SOL     OW22532   8.413   0.305   1.414  0.4292  0.0884 -0.4753
 7113SOL    HW122533   8.321   0.331   1.414  0.3281 -0.1354  1.3153
 7113SOL    HW222534   8.450   0.347   1.337 -1.4822 -1.0750 -2.1202
 7114SOL     OW22535   2.560   5.946   4.356  0.1632 -0.6827  0.1493
 7114SOL    HW122536   2.611   5.983   4.285 -0.2250 -0.4160  0.0069
 7114SOL    HW222537   2.478   5.918   4.315  0.4584 -1.7349  0.2462
 7115SOL     OW22538   8.176   6.315   7.261 -0.6174 -0.4373  0.7824
 7115SOL    HW122539   8.196   6.390   7.205  0.5862 -1.9052 -0.8730
 7115SOL    HW222540   8.093   6.281   7.225 -0.5228 -0.6101  0.7255
 7116SOL     OW22541   2.020   8.271   0.713  0.1393 -0.4787  0.2309
 7116SOL    HW122542   2.050   8.225   0.791  0.2189 -1.2806 -0.2579
 7116SOL    HW222543   1.943   8.221   0.684 -0.9313  0.8170  0.7697
 7117SOL     OW22544   4.425   6.866   2.935  0.2258 -0.2558  0.0850
 7117SOL    HW122545   4.501   6.813   2.960 -0.8232 -2.1693 -0.5927
 7117SOL    HW222546   4.386   6.893   3.018  0.1693 -1.4697  0.4639
 7118SOL     OW22547   1.165   0.608   3.752 -0.2805  0.2832  0.3265
 7118SOL    HW122548   1.206   0.577   3.832 -0.3786 -0.9619 -0.0830
 7118SOL    HW222549   1.221   0.679   3.722  0.5849 -0.2127  0.7272
 7119SOL     OW22550   5.787   2.414   4.200 -0.0129 -0.0333  0.3742
 7119SOL    HW122551   5.748   2.331   4.172 -1.1977  0.0501  1.6159
 7119SOL    HW222552   5.863   2.426   4.144 -1.8221 -0.1740 -2.2674
 7120SOL     OW22553   5.537   6.504   5.837 -0.3901  0.5489 -0.3016
 7120SOL    HW122554   5.496   6.492   5.752 -0.5223 -0.5767 -0.0960
 7120SOL    HW222555   5.512   6.426   5.887  0.9301  0.4586  0.2600
 7121SOL     OW22556   1.042   1.123   1.472  0.4095 -0.0521 -0.0587
 7121SOL    HW122557   1.105   1.125   1.400  0.3637 -1.4317 -0.1619
 7121SOL    HW222558   1.014   1.214   1.482  1.0571  0.2919 -1.2174
 7122SOL     OW22559   1.795   5.388   6.380 -0.4255  0.0873  0.0631
 7122SOL    HW122560   1.808   5.481   6.402 -0.5375  0.1591 -0.1805
 7122SOL    HW222561   1.742   5.389   6.301 -1.2134 -0.1972  0.5708
 7123SOL     OW22562   0.862   5.449   3.796  0.3752  0.1534  0.0882
 7123SOL    HW122563   0.918   5.522   3.824  1.0190  0.4567 -1.8521
 7123SOL    HW222564   0.821   5.479   3.715  0.2281 -1.4291 -0.4693
 7124SOL     OW22565   6.540   2.731   4.240 -0.2638  0.2430 -0.4461
 7124SOL    HW122566   6.603   2.668   4.276  0.0831  0.9003  0.1286
 7124SOL    HW222567   6.525   2.702   4.150  1.6830  0.6760 -0.9547
 7125SOL     OW22568   3.553   2.507   0.228  0.0887  0.3389  0.1645
 7125SOL    HW122569   3.625   2.544   0.177  0.2756  0.5949  0.6094
 7125SOL    HW222570   3.585   2.423   0.259 -0.1467  0.0317 -0.4139
 7126SOL     OW22571   7.278   6.437   4.000  0.2457  0.4228  0.1002
 7126SOL    HW122572   7.217   6.405   4.066  0.6861 -0.3156  0.1757
 7126SOL    HW222573   7.278   6.369   3.932 -1.1748  1.7636 -1.3291
 7127SOL     OW22574   0.237   2.502   1.687 -0.0129 -0.2254 -0.2933
 7127SOL    HW122575   0.243   2.448   1.766 -0.4185  1.7889  1.2417
 7127SOL    HW222576   0.168   2.462   1.635  0.3929 -1.7180  0.2678
 7128SOL     OW22577   5.678   1.452   4.202  0.2590 -0.4807  0.5649
 7128SOL    HW122578   5.765   1.446   4.161 -0.5764 -0.9063 -1.2532
 7128SOL    HW222579   5.696   1.450   4.296  2.1031 -2.8154  0.2833
 7129SOL     OW22580   7.440   8.108   6.828  0.2284 -0.4068  0.2454
 7129SOL    HW122581   7.366   8.057   6.796 -0.0893 -0.1182  0.5152
 7129SOL    HW222582   7.433   8.192   6.783 -0.3188  0.0627  1.1770
 7130SOL     OW22583   4.193   1.603   1.172  0.2707 -0.0751 -0.0137
 7130SOL    HW122584   4.201   1.627   1.079 -0.1504 -1.3357 -0.3854
 7130SOL    HW222585   4.099   1.609   1.190  0.5259  2.2183  0.9321
 7131SOL     OW22586   3.712   3.526   8.182 -0.1938 -0.2117 -0.6805
 7131SOL    HW122587   3.714   3.571   8.098 -2.7428  0.3114 -0.5332
 7131SOL    HW222588   3.679   3.591   8.244 -0.6895 -1.2911  0.2326
 7132SOL     OW22589   4.649   0.236   0.445  0.4661 -0.0690 -0.6447
 7132SOL    HW122590   4.676   0.252   0.535  1.6651  0.8588 -1.1392
 7132SOL    HW222591   4.698   0.158   0.418  0.5268 -0.0263 -0.6589
 7133SOL     OW22592   0.440   5.275   4.489  0.6073 -0.1350  0.2964
 7133SOL    HW122593   0.490   5.196   4.471  0.7390 -0.0937  0.4820
 7133SOL    HW222594   0.396   5.295   4.407 -0.2014 -0.9522  0.5147
 7134SOL     OW22595   0.044   1.770   8.392 -0.1815  0.0157 -0.0723
 7134SOL    HW122596   0.135   1.798   8.405 -0.2606  0.4113 -0.3407
 7134SOL    HW222597  -0.002   1.851   8.369 -0.3701 -0.3871 -1.1375
 7135SOL     OW22598   2.528   6.549   0.080 -0.2621  0.2069  0.2712
 7135SOL    HW122599   2.496   6.487   0.145 -1.2685 -0.2167 -0.6080
 7135SOL    HW222600   2.623   6.554   0.096 -0.0948 -1.8302  0.1392
 7136SOL     OW22601   7.914   5.108   4.458  0.2707 -0.6326 -0.3570
 7136SOL    HW122602   7.903   5.122   4.552 -0.6514 -0.5975 -0.4598
 7136SOL    HW222603   7.978   5.174   4.432 -0.6685  0.4492 -0.0256
 7137SOL     OW22604   8.499   6.455   4.245  0.3906 -0.3290  0.0593
 7137SOL    HW122605   8.545   6.539   4.243 -0.9143  0.4179  0.2313
 7137SOL    HW222606   8.486   6.433   4.152  0.0906  0.0364  0.0102
 7138SOL     OW22607   6.036   5.493   5.747  0.2355 -0.2732  0.0032
 7138SOL    HW122608   6.101   5.559   5.723 -1.2464  1.2357 -0.0299
 7138SOL    HW222609   5.973   5.494   5.675  0.0364 -1.5522  0.1376
 7139SOL     OW22610   6.441   4.534   8.335 -0.0307 -0.6733 -0.4831
 7139SOL    HW122611   6.497   4.582   8.395 -0.3659 -0.2453 -0.5088
 7139SOL    HW222612   6.482   4.448   8.327 -0.4596 -1.0612  1.0628
 7140SOL     OW22613   7.914   7.278   7.448  0.2785 -0.7322 -0.1261
 7140SOL    HW122614   7.831   7.278   7.402 -0.0721 -2.1656  0.4573
 7140SOL    HW222615   7.904   7.344   7.517  0.2826  0.3541 -1.1323
 7141SOL     OW22616   2.605   4.219   2.655 -0.0135  0.4171  0.5386
 7141SOL    HW122617   2.658   4.288   2.614 -2.0113 -0.2835 -3.8340
 7141SOL    HW222618   2.518   4.257   2.665 -0.9828 -1.1278 -1.3412
 7142SOL     OW22619   1.046   0.582   1.786 -0.5092 -0.0206  0.2733
 7142SOL    HW122620   0.993   0.616   1.714  0.7798 -1.8441 -1.6601
 7142SOL    HW222621   0.986   0.526   1.837 -0.6990 -1.4407 -1.4242
 7143SOL     OW22622   4.434   5.424   2.219  0.7472  0.0894 -0.4371
 7143SOL    HW122623   4.412   5.500   2.273  1.1414  0.4267 -0.7373
 7143SOL    HW222624   4.397   5.445   2.133 -0.0556 -0.5361 -0.2575
 7144SOL     OW22625   1.105   3.744   7.175 -0.0504 -0.7297 -0.3583
 7144SOL    HW122626   1.100   3.655   7.140  1.3215 -1.1711  0.4676
 7144SOL    HW222627   1.146   3.734   7.261  0.9511  0.7775 -0.6098
 7145SOL     OW22628   2.260   3.055   3.687 -0.7945  0.0669 -0.1782
 7145SOL    HW122629   2.270   2.962   3.709 -2.9797 -0.3010 -0.5079
 7145SOL    HW222630   2.306   3.065   3.604  0.6257 -0.3916  0.5319
 7146SOL     OW22631   3.785   2.533   4.817  0.4725  0.4900 -0.3831
 7146SOL    HW122632   3.798   2.601   4.750 -0.4837  1.8600  0.7724
 7146SOL    HW222633   3.871   2.491   4.824  0.3530 -0.4189 -3.1812
 7147SOL     OW22634   7.709   5.310   2.047  0.3019 -0.3965  0.3247
 7147SOL    HW122635   7.693   5.397   2.082 -0.3729 -0.3143 -0.1715
 7147SOL    HW222636   7.657   5.252   2.104  0.5110 -0.4428  0.4690
 7148SOL     OW22637   7.586   4.824   7.694 -0.0044  0.4452 -0.0672
 7148SOL    HW122638   7.516   4.879   7.656 -0.5815 -0.6268 -0.6072
 7148SOL    HW222639   7.613   4.767   7.622 -0.7663 -1.3017  0.9537
 7149SOL     OW22640   4.633   8.225   1.898  0.3708 -0.5200  0.3827
 7149SOL    HW122641   4.621   8.155   1.834 -0.0115 -1.0637  1.0510
 7149SOL    HW222642   4.567   8.209   1.965  0.3824  0.3881  0.6234
 7150SOL     OW22643   1.081   6.520   3.781 -0.0527  0.3755 -0.7772
 7150SOL    HW122644   1.093   6.586   3.849  4.1220 -0.6920 -0.1812
 7150SOL    HW222645   1.005   6.469   3.809 -0.2457  1.7690  1.4653
 7151SOL     OW22646   1.837   7.067   1.377  0.0245  0.6022 -0.4490
 7151SOL    HW122647   1.842   7.050   1.283 -0.3950 -1.5992 -0.1293
 7151SOL    HW222648   1.746   7.091   1.392 -0.7645 -2.1294 -0.2484
 7152SOL     OW22649   7.373   4.372   8.599 -0.4117 -0.6310 -0.0124
 7152SOL    HW122650   7.280   4.349   8.604 -0.6640  0.2947 -0.1651
 7152SOL    HW222651   7.402   4.373   8.690 -1.2113  1.5236  0.2938
 7153SOL     OW22652   8.134   0.725   5.269 -0.1024  0.0399  0.3832
 7153SOL    HW122653   8.200   0.794   5.275  1.1603 -1.2743  3.3361
 7153SOL    HW222654   8.165   0.669   5.197 -0.3275  1.6185 -1.0223
 7154SOL     OW22655   2.944   1.951   0.088 -0.0492  0.1892  0.4449
 7154SOL    HW122656   2.988   1.866   0.078 -3.3689 -2.3627  4.1012
 7154SOL    HW222657   2.987   1.991   0.164 -1.7012 -0.8324  2.0116
 7155SOL     OW22658   0.210   5.165   8.490  0.3581 -0.0411  0.1890
 7155SOL    HW122659   0.234   5.257   8.504  1.4691 -0.3657  0.5103
 7155SOL    HW222660   0.288   5.116   8.513  0.3956 -0.9735 -1.7553
 7156SOL     OW22661   8.332   2.877   2.001 -0.2465  0.1907  0.1440
 7156SOL    HW122662   8.402   2.943   2.009  0.3598 -0.3852 -0.2519
 7156SOL    HW222663   8.251   2.927   2.012  0.1842  1.0713 -0.5148
 7157SOL     OW22664   4.159   5.456   3.100  0.7640 -0.2637 -0.2628
 7157SOL    HW122665   4.254   5.468   3.097  0.6305  2.8064  2.6178
 7157SOL    HW222666   4.126   5.515   3.033  0.8360 -1.0121 -0.9708
 7158SOL     OW22667   3.179   3.116   2.219  0.6447  0.0047 -0.5030
 7158SOL    HW122668   3.253   3.176   2.223  0.0273  0.8171 -1.0457
 7158SOL    HW222669   3.116   3.158   2.160 -0.7593 -0.1025  0.8359
 7159SOL     OW22670   2.306   8.418   4.429  0.2019  0.0179 -0.1429
 7159SOL    HW122671   2.386   8.459   4.397  0.3872 -0.1560  0.0980
 7159SOL    HW222672   2.336   8.345   4.483 -0.1000  0.6017  0.8381
 7160SOL     OW22673   5.163   7.250   7.465 -0.1081  0.2499 -0.3843
 7160SOL    HW122674   5.102   7.320   7.442 -1.4179 -0.6878  0.1747
 7160SOL    HW222675   5.249   7.292   7.459 -0.8397  1.8927 -0.1514
 7161SOL     OW22676   0.482   5.743   6.745 -0.3750 -0.4888  0.4738
 7161SOL    HW122677   0.443   5.790   6.818  0.6225  1.6295 -0.2741
 7161SOL    HW222678   0.559   5.795   6.721 -0.1799 -1.5839 -1.5082
 7162SOL     OW22679   5.082   4.309   7.577 -0.1195  0.3911  0.5795
 7162SOL    HW122680   5.071   4.225   7.622  0.6433  0.6110  1.2166
 7162SOL    HW222681   5.177   4.320   7.570 -0.2195  0.8996 -0.0720
 7163SOL     OW22682   6.090   5.448   6.932 -0.0805  0.1563  0.2150
 7163SOL    HW122683   6.177   5.442   6.894 -0.2352  1.1038 -0.3227
 7163SOL    HW222684   6.097   5.403   7.016  0.4446 -1.3930 -0.6116
 7164SOL     OW22685   5.598   0.256   6.645 -0.8431 -0.3784 -0.5129
 7164SOL    HW122686   5.636   0.278   6.560 -0.1894 -1.4725 -0.5303
 7164SOL    HW222687   5.533   0.189   6.626 -2.6051  1.2435 -0.4375
 7165SOL     OW22688   8.374   6.435   0.923 -0.1437 -0.5374  0.4820
 7165SOL    HW122689   8.314   6.366   0.894  0.6384 -1.3213  0.6845
 7165SOL    HW222690   8.334   6.516   0.893 -0.3008 -1.1941 -1.1642
 7166SOL     OW22691   4.310   1.662   5.436  0.0818  0.0778  0.8078
 7166SOL    HW122692   4.243   1.599   5.407 -0.1154  0.3144  0.7445
 7166SOL    HW222693   4.265   1.747   5.434  0.3191  0.2073  0.9872
 7167SOL     OW22694   2.645   8.368   1.092  0.4765  0.0921  0.1003
 7167SOL    HW122695   2.570   8.394   1.146 -0.0458 -0.2180 -0.4551
 7167SOL    HW222696   2.699   8.446   1.086  0.3804  0.2139  0.8161
 7168SOL     OW22697   8.053   0.538   1.931 -0.7976 -0.1233  0.1408
 7168SOL    HW122698   7.975   0.511   1.980 -1.6492  0.9767 -0.5509
 7168SOL    HW222699   8.030   0.624   1.896 -0.5172 -1.0915 -2.7145
 7169SOL     OW22700   6.608   2.900   3.689 -0.2868 -0.7552  0.1855
 7169SOL    HW122701   6.617   2.983   3.643  0.4688 -1.1004 -0.3044
 7169SOL    HW222702   6.641   2.918   3.777  2.3468 -1.1610 -0.6520
 7170SOL     OW22703   4.390   8.165   3.100  0.6064 -0.2787  0.2033
 7170SOL    HW122704   4.339   8.141   3.023  1.5528 -0.1964 -0.4718
 7170SOL    HW222705   4.406   8.082   3.146  1.4933 -0.5935 -0.6262
 7171SOL     OW22706   1.321   1.281   3.380 -0.1484 -0.3412 -0.4547
 7171SOL    HW122707   1.406   1.265   3.422 -0.4015 -2.0128 -0.4826
 7171SOL    HW222708   1.269   1.323   3.448 -0.0843 -1.6689  0.4675
 7172SOL     OW22709   3.498   6.699   7.042 -0.6539 -0.5932  0.2345
 7172SOL    HW122710   3.486   6.605   7.029 -0.4656 -0.4372 -1.1822
 7172SOL    HW222711   3.592   6.711   7.049 -0.6779 -0.5058  0.4185
 7173SOL     OW22712   1.959   8.325   5.458 -0.3266 -0.3614 -0.0102
 7173SOL    HW122713   1.954   8.273   5.538 -0.7608 -1.2936 -0.6197
 7173SOL    HW222714   1.931   8.265   5.389  1.6971 -0.1204 -1.1188
 7174SOL     OW22715   1.331   1.295   6.479 -0.4998  1.3196  0.3629
 7174SOL    HW122716   1.327   1.330   6.390 -0.6520  0.1478 -0.1073
 7174SOL    HW222717   1.381   1.213   6.470 -1.2675  0.7455  1.1982
 7175SOL     OW22718   4.271   0.555   5.698  0.3614 -0.4701 -0.2144
 7175SOL    HW122719   4.291   0.492   5.629  1.1007 -1.1079  0.5456
 7175SOL    HW222720   4.356   0.595   5.719  0.2551 -0.6808  0.6799
 7176SOL     OW22721   8.188   7.780   4.168 -0.1925 -0.3002 -0.3158
 7176SOL    HW122722   8.196   7.875   4.182  0.6262 -0.0910 -1.9236
 7176SOL    HW222723   8.208   7.742   4.254  1.3602  0.9389 -0.0755
 7177SOL     OW22724   6.221   0.459   2.328 -0.0558  0.6515 -0.2343
 7177SOL    HW122725   6.177   0.535   2.367 -1.2457 -0.2525  0.2832
 7177SOL    HW222726   6.288   0.435   2.392 -0.6020  0.4495  0.2754
 7178SOL     OW22727   3.884   3.207   7.423  0.2001  0.4402  0.3361
 7178SOL    HW122728   3.903   3.257   7.344  1.1732 -0.3414  0.0619
 7178SOL    HW222729   3.805   3.158   7.402  1.8701 -1.8035 -1.1680
 7179SOL     OW22730   1.582   7.936   5.209  0.0712 -0.0641  0.0705
 7179SOL    HW122731   1.543   7.974   5.288  1.8728  1.5934  0.2304
 7179SOL    HW222732   1.521   7.958   5.139 -0.5299  0.2416  0.6837
 7180SOL     OW22733   4.309   4.626   7.047  0.1565 -0.0660  0.1138
 7180SOL    HW122734   4.376   4.647   6.982 -0.3475 -0.6080 -0.5998
 7180SOL    HW222735   4.271   4.710   7.072 -0.7941  0.0294 -1.5544
 7181SOL     OW22736   5.871   2.767   1.441 -0.1957  0.3606  0.0437
 7181SOL    HW122737   5.853   2.739   1.531  3.1767  1.2212  1.1069
 7181SOL    HW222738   5.882   2.862   1.446  1.1110  0.3043 -1.0295
 7182SOL     OW22739   3.186   1.346   4.144 -0.2599  0.0273  0.1299
 7182SOL    HW122740   3.277   1.374   4.154 -0.8165  2.4527 -0.8800
 7182SOL    HW222741   3.182   1.306   4.057 -0.0304 -0.7621  0.4739
 7183SOL     OW22742   6.900   6.174   5.470 -0.4431  0.5539 -0.4560
 7183SOL    HW122743   6.981   6.139   5.506 -0.9973 -0.9756 -0.6156
 7183SOL    HW222744   6.866   6.232   5.538  1.5552  2.5468 -1.0207
 7184SOL     OW22745   3.260   8.451   3.977 -0.4808  0.3158 -0.4162
 7184SOL    HW122746   3.350   8.424   3.995  0.3926  0.2708 -4.1565
 7184SOL    HW222747   3.214   8.370   3.957 -1.5171  0.3098  1.7107
 7185SOL     OW22748   4.912   6.035   4.117  0.0522  0.4097 -0.8144
 7185SOL    HW122749   4.998   6.013   4.080 -0.0705 -0.5500 -0.5488
 7185SOL    HW222750   4.867   6.082   4.047 -0.3738 -1.8000 -2.1359
 7186SOL     OW22751   7.039   3.691   3.815  0.1083 -0.2857 -0.1264
 7186SOL    HW122752   7.071   3.744   3.888  0.6242 -1.0058  0.1833
 7186SOL    HW222753   6.976   3.748   3.770  0.8565  0.6952  0.0173
 7187SOL     OW22754   6.321   0.251   6.302 -0.7742 -0.2456 -0.1849
 7187SOL    HW122755   6.369   0.318   6.254 -1.1064  0.4620  0.4587
 7187SOL    HW222756   6.233   0.286   6.311 -1.6990 -1.8586 -2.0498
 7188SOL     OW22757   1.073   7.360   0.610  0.0789 -0.7848  0.5256
 7188SOL    HW122758   1.018   7.349   0.531 -0.1875  1.5095  0.3121
 7188SOL    HW222759   1.162   7.348   0.579 -0.1309 -1.9062  0.3160
 7189SOL     OW22760   3.986   4.728   1.066  0.0663 -0.0841 -0.0537
 7189SOL    HW122761   4.012   4.778   0.990 -0.8372 -2.7112 -2.2615
 7189SOL    HW222762   3.891   4.736   1.069  0.0520 -0.3858  0.5283
 7190SOL     OW22763   3.835   4.400   0.818  0.4606 -0.5362  0.3076
 7190SOL    HW122764   3.919   4.418   0.774  0.0536 -0.5903 -0.5245
 7190SOL    HW222765   3.853   4.414   0.911  1.8881 -2.3220  0.3783
 7191SOL     OW22766   6.911   2.369   3.594 -0.1381 -0.1205  0.7059
 7191SOL    HW122767   6.854   2.336   3.663 -1.8478  0.5873 -0.2883
 7191SOL    HW222768   6.967   2.433   3.637 -1.1143  0.2522  1.4654
 7192SOL     OW22769   4.014   2.554   3.406  0.9682 -0.7431 -1.1998
 7192SOL    HW122770   4.078   2.506   3.459 -0.3843 -0.2121  1.0262
 7192SOL    HW222771   3.969   2.485   3.356  0.3466 -1.6265  0.5062
 7193SOL     OW22772   0.607   5.129   7.996  0.1688  0.3301  0.0631
 7193SOL    HW122773   0.598   5.210   7.946  0.1215  0.4010  0.1842
 7193SOL    HW222774   0.607   5.158   8.087 -0.4798  0.1417  0.1310
 7194SOL     OW22775   7.650   7.680   6.534 -0.1976 -0.4539  0.5115
 7194SOL    HW122776   7.616   7.608   6.587  2.9143 -1.0509  1.8775
 7194SOL    HW222777   7.654   7.754   6.594  1.3370 -0.5487  0.5539
 7195SOL     OW22778   4.708   5.175   4.917 -0.5723  1.1708 -0.1841
 7195SOL    HW122779   4.703   5.160   4.823 -0.2546  0.7831 -0.1406
 7195SOL    HW222780   4.755   5.258   4.926  0.5262  0.5756 -0.3302
 7196SOL     OW22781   8.044   0.280   8.259 -0.0405  0.0489 -0.2663
 7196SOL    HW122782   8.036   0.364   8.305 -1.8092  0.8129 -1.8298
 7196SOL    HW222783   8.130   0.284   8.218  0.9411 -0.0085  1.6506
 7197SOL     OW22784   7.161   6.775   4.261 -0.0290  0.3248  0.0785
 7197SOL    HW122785   7.215   6.854   4.254 -0.9158  0.8791 -0.9073
 7197SOL    HW222786   7.214   6.713   4.312  1.0925  1.2030  0.0117
 7198SOL     OW22787   7.290   6.430   5.831 -0.2040  0.0119 -0.3861
 7198SOL    HW122788   7.253   6.369   5.767  0.3826 -1.1802  0.3565
 7198SOL    HW222789   7.219   6.445   5.893 -0.3286  0.0132 -0.5281
 7199SOL     OW22790   5.784   4.974   5.775  0.5011  0.1539 -0.1053
 7199SOL    HW122791   5.772   4.968   5.870 -2.8976 -0.7850 -0.4536
 7199SOL    HW222792   5.769   5.066   5.755  2.5693  0.6231  0.3498
 7200SOL     OW22793   3.839   7.068   4.531  0.9174  0.0724  0.2552
 7200SOL    HW122794   3.798   7.013   4.464  1.3544  1.5266 -1.2480
 7200SOL    HW222795   3.925   7.028   4.545  0.0689 -1.4753  1.5696
 7201SOL     OW22796   4.505   2.221   8.314  0.1029  0.2829 -0.3090
 7201SOL    HW122797   4.570   2.247   8.379 -0.3814 -0.2391  0.3957
 7201SOL    HW222798   4.491   2.128   8.330 -0.9237  0.4216 -0.3476
 7202SOL     OW22799   1.223   2.299   0.970  0.2810 -0.0280 -0.0476
 7202SOL    HW122800   1.236   2.383   0.925  0.7829  0.3725  0.7991
 7202SOL    HW222801   1.183   2.324   1.054  1.8753 -0.4491  0.8838
 7203SOL     OW22802   4.045   2.739   7.391  0.1996  0.2508 -0.0283
 7203SOL    HW122803   4.073   2.760   7.302  0.8981  2.7296  0.6943
 7203SOL    HW222804   4.075   2.649   7.405  2.6820  0.7753 -1.3465
 7204SOL     OW22805   3.651   1.636   0.147 -0.1160 -0.3117 -0.0924
 7204SOL    HW122806   3.564   1.610   0.177 -1.0232  0.6217 -1.7710
 7204SOL    HW222807   3.711   1.574   0.188 -1.1938  0.8806  3.6504
 7205SOL     OW22808   7.385   5.293   2.985 -0.1744 -0.0538 -0.5340
 7205SOL    HW122809   7.378   5.203   3.017 -0.4385  0.0597 -0.2725
 7205SOL    HW222810   7.311   5.339   3.024 -2.2220 -0.5555 -3.4967
 7206SOL     OW22811   2.338   0.360   7.817 -0.3455 -0.6879  0.4489
 7206SOL    HW122812   2.376   0.273   7.807 -2.2513 -1.4288 -0.7141
 7206SOL    HW222813   2.323   0.390   7.728  0.6953  1.0610  0.8132
 7207SOL     OW22814   6.000   0.678   6.417  0.0004 -0.0880  0.8792
 7207SOL    HW122815   5.916   0.705   6.453  0.1651  3.7284 -1.1158
 7207SOL    HW222816   5.977   0.629   6.338 -0.5757  2.8232 -0.9206
 7208SOL     OW22817   1.081   2.711   8.411 -0.1418 -0.2037 -0.4455
 7208SOL    HW122818   1.086   2.763   8.491  1.4472 -1.0171  0.0236
 7208SOL    HW222819   0.988   2.708   8.390 -0.7927 -1.1646  2.1922
 7209SOL     OW22820   4.919   0.398   2.585  0.7735  0.6589  0.6483
 7209SOL    HW122821   4.960   0.462   2.527 -1.1536  2.8207  1.5529
 7209SOL    HW222822   4.884   0.449   2.657  0.7102 -1.6561  2.3705
 7210SOL     OW22823   6.585   3.100   5.779  0.1542  0.4826 -0.8111
 7210SOL    HW122824   6.521   3.030   5.783  0.0547  0.5998 -0.2287
 7210SOL    HW222825   6.670   3.056   5.787  0.0849  0.4404 -0.2839
 7211SOL     OW22826   6.442   4.995   7.631  0.3893 -0.0830 -0.0177
 7211SOL    HW122827   6.454   4.914   7.680 -0.9225  0.9331  2.1348
 7211SOL    HW222828   6.377   4.973   7.564  1.7134 -1.3292 -0.9552
 7212SOL     OW22829   7.229   0.750   5.289  0.0845 -0.0714 -0.0663
 7212SOL    HW122830   7.173   0.828   5.294  0.2641 -0.0135  1.2693
 7212SOL    HW222831   7.317   0.785   5.278 -0.0198 -0.1443 -1.2672
 7213SOL     OW22832   1.594   7.192   6.424  0.5923  0.4208 -0.2511
 7213SOL    HW122833   1.514   7.188   6.371 -0.1386 -0.7554  0.8687
 7213SOL    HW222834   1.584   7.271   6.476 -0.8422 -0.7245  1.3150
 7214SOL     OW22835   4.483   3.188   2.411  0.1361 -0.0808  0.1316
 7214SOL    HW122836   4.432   3.252   2.461  0.9055  0.2454  0.5118
 7214SOL    HW222837   4.465   3.210   2.320  2.1985  2.2502  0.1711
 7215SOL     OW22838   3.572   6.497   0.583  0.1639 -0.3138 -0.5394
 7215SOL    HW122839   3.533   6.467   0.501  1.8648 -0.9284 -1.1813
 7215SOL    HW222840   3.653   6.447   0.591  0.2766  0.0826  1.2931
 7216SOL     OW22841   0.044   4.246   5.165  0.0508  0.1796 -0.0713
 7216SOL    HW122842  -0.036   4.283   5.129  0.2783  0.3072 -0.4596
 7216SOL    HW222843   0.017   4.199   5.244 -0.6604 -1.2487 -1.1309
 7217SOL     OW22844   1.607   7.297   3.181  0.2331  0.9242 -0.0686
 7217SOL    HW122845   1.698   7.285   3.209  0.0394  0.7842  0.5088
 7217SOL    HW222846   1.595   7.232   3.112  0.3226  0.3567  0.4382
 7218SOL     OW22847   3.585   3.841   7.475 -0.4269 -0.2676 -0.6227
 7218SOL    HW122848   3.566   3.794   7.394  1.7454 -0.1833 -1.2527
 7218SOL    HW222849   3.523   3.915   7.476 -1.9886 -1.5204 -1.0206
 7219SOL     OW22850   2.652   0.590   0.143  0.4183 -0.0006  0.3505
 7219SOL    HW122851   2.712   0.660   0.169 -0.6887  1.6525 -1.2916
 7219SOL    HW222852   2.567   0.633   0.135 -0.3599 -1.5987 -0.4277
 7220SOL     OW22853   5.695   6.244   3.780 -0.2925 -0.6752 -0.4161
 7220SOL    HW122854   5.610   6.290   3.779 -0.9308 -1.4129  3.7077
 7220SOL    HW222855   5.681   6.170   3.839  2.9141 -1.6227 -0.7009
 7221SOL     OW22856   2.691   0.626   5.599  0.3001 -0.5138  0.2828
 7221SOL    HW122857   2.748   0.561   5.640  1.3033  0.4637  0.4729
 7221SOL    HW222858   2.749   0.677   5.542 -0.7344 -0.6733 -0.9696
 7222SOL     OW22859   0.346   2.418   0.713 -0.3206 -0.3777 -0.6995
 7222SOL    HW122860   0.275   2.357   0.730  0.1282 -0.3691  1.5251
 7222SOL    HW222861   0.412   2.367   0.666 -0.7876 -1.0511 -0.6316
 7223SOL     OW22862   2.975   0.374   2.773  0.3426 -0.0806  0.2920
 7223SOL    HW122863   2.985   0.389   2.867  1.0798 -0.7182  0.3289
 7223SOL    HW222864   2.967   0.279   2.764 -1.6227  0.0927 -0.1461
 7224SOL     OW22865   4.981   3.891   5.856  0.0770 -0.2906  0.4195
 7224SOL    HW122866   4.886   3.906   5.857  0.1181  0.0544 -0.1807
 7224SOL    HW222867   5.015   3.957   5.795  0.5772 -1.1142 -0.2184
 7225SOL     OW22868   1.995   1.800   1.971  0.1044  0.1847  0.2928
 7225SOL    HW122869   1.993   1.836   2.060 -1.2175  0.0720  0.3302
 7225SOL    HW222870   2.080   1.756   1.965 -0.1965 -0.6839  1.8687
 7226SOL     OW22871   0.848   6.278   0.089 -0.1267 -0.2365  0.6433
 7226SOL    HW122872   0.907   6.352   0.094 -1.2218  0.7488 -0.4340
 7226SOL    HW222873   0.892   6.215   0.032  0.6922 -0.3204  1.3527
 7227SOL     OW22874   7.346   8.327   6.665  0.6668  0.1729 -0.5548
 7227SOL    HW122875   7.394   8.375   6.597  1.7943 -1.0723 -0.6918
 7227SOL    HW222876   7.260   8.368   6.667  1.6306  2.3269 -0.4817
 7228SOL     OW22877   1.909   5.587   2.225 -0.2001 -0.2208 -0.0010
 7228SOL    HW122878   2.001   5.611   2.224  0.1225 -1.3993  0.5442
 7228SOL    HW222879   1.876   5.620   2.309  0.2006 -1.4771  0.6680
 7229SOL     OW22880   1.880   6.647   1.993  0.0187  0.3392 -0.4370
 7229SOL    HW122881   1.798   6.602   2.010 -1.6286  2.4395 -2.1236
 7229SOL    HW222882   1.928   6.589   1.934  0.1242 -1.2248  1.1105
 7230SOL     OW22883   5.238   0.272   1.231  0.1100 -0.2458  0.2143
 7230SOL    HW122884   5.159   0.221   1.212 -0.5998  0.7458  0.4110
 7230SOL    HW222885   5.304   0.206   1.252 -0.9924 -1.0708  1.2567
 7231SOL     OW22886   3.678   6.591   6.751  0.7676 -0.0661 -0.0553
 7231SOL    HW122887   3.719   6.677   6.743 -0.7007  0.7198  0.6065
 7231SOL    HW222888   3.702   6.561   6.839  0.6362  0.0036  0.0039
 7232SOL     OW22889   3.943   0.535   4.770 -0.0218  0.1809  0.1220
 7232SOL    HW122890   3.962   0.474   4.840 -0.6431 -0.7987 -0.5326
 7232SOL    HW222891   3.902   0.610   4.813  0.4751  0.0108  0.8997
 7233SOL     OW22892   4.953   6.504   8.360  0.7134  0.3859 -0.5740
 7233SOL    HW122893   4.984   6.423   8.321 -1.1710 -0.8455  0.3540
 7233SOL    HW222894   4.942   6.483   8.453  1.2373  2.0483 -0.0977
 7234SOL     OW22895   6.159   6.775   7.758 -0.4485 -0.0191  0.2016
 7234SOL    HW122896   6.200   6.801   7.676 -0.6798  1.6509  0.5878
 7234SOL    HW222897   6.185   6.683   7.770 -0.2551 -0.2410 -1.6197
 7235SOL     OW22898   7.488   8.565   3.857  0.1472  0.2461 -0.0536
 7235SOL    HW122899   7.489   8.471   3.841  1.1780  0.2108  0.1706
 7235SOL    HW222900   7.519   8.603   3.775 -0.1414  0.3891 -0.0981
 7236SOL     OW22901   5.573   2.369   0.332  0.3417 -0.0782 -0.6756
 7236SOL    HW122902   5.569   2.319   0.414  0.7197 -0.3588 -0.8270
 7236SOL    HW222903   5.603   2.456   0.359  1.5850 -0.4995 -0.6500
 7237SOL     OW22904   2.552   3.536   0.137 -0.6102 -0.0111 -0.0013
 7237SOL    HW122905   2.631   3.516   0.188 -0.1562 -0.3809 -0.8424
 7237SOL    HW222906   2.538   3.459   0.082 -2.1146 -0.3541  0.8035
 7238SOL     OW22907   2.256   3.194   8.053  0.8281 -0.0639 -0.4918
 7238SOL    HW122908   2.303   3.183   7.971 -0.8334  3.7583 -2.2005
 7238SOL    HW222909   2.179   3.137   8.045  0.4908  0.5401 -1.8296
 7239SOL     OW22910   7.145   2.375   4.094  0.2957 -0.7219 -0.2896
 7239SOL    HW122911   7.189   2.297   4.129  0.6719  0.3137  1.6893
 7239SOL    HW222912   7.211   2.417   4.039 -0.2996 -2.3759 -2.4077
 7240SOL     OW22913   7.962   3.313   3.143 -1.1325  0.0561 -0.2625
 7240SOL    HW122914   8.040   3.309   3.088 -0.3422  1.0322  0.7559
 7240SOL    HW222915   7.892   3.338   3.083 -0.4288  0.3987 -0.9596
 7241SOL     OW22916   2.959   3.321   7.265 -0.4435 -0.0874  0.2196
 7241SOL    HW122917   2.910   3.272   7.199 -1.8611  0.7918  0.5689
 7241SOL    HW222918   2.893   3.374   7.310  0.7007  0.4412  1.3648
 7242SOL     OW22919   1.481   2.527   3.499  0.0450 -0.0104  0.1630
 7242SOL    HW122920   1.404   2.471   3.507 -0.3654  0.2923 -1.3554
 7242SOL    HW222921   1.483   2.577   3.581 -1.7631  0.4711 -0.0456
 7243SOL     OW22922   6.481   0.940   5.955  0.8435 -0.5498 -0.4466
 7243SOL    HW122923   6.553   1.003   5.964  1.1006 -0.8740 -0.2452
 7243SOL    HW222924   6.430   0.950   6.035  0.9306 -0.6568 -0.3780
 7244SOL     OW22925   1.536   0.904   6.369 -0.3408 -0.2140  0.5593
 7244SOL    HW122926   1.514   0.992   6.341 -0.4700 -1.0410 -2.2072
 7244SOL    HW222927   1.454   0.869   6.406 -0.4596  0.5717  1.0552
 7245SOL     OW22928   4.734   4.854   3.824 -0.6998  0.1261 -0.6773
 7245SOL    HW122929   4.794   4.791   3.864  0.7401  0.7897 -1.6707
 7245SOL    HW222930   4.647   4.821   3.844 -0.1885  0.8391  3.7230
 7246SOL     OW22931   5.314   5.235   1.958 -0.4744  0.3761 -0.3288
 7246SOL    HW122932   5.259   5.309   1.982 -0.8345  0.1226 -0.3537
 7246SOL    HW222933   5.258   5.158   1.972  0.5378 -0.0518  1.6720
 7247SOL     OW22934   6.291   5.309   3.532 -0.3247 -0.0354  0.0681
 7247SOL    HW122935   6.235   5.386   3.547 -1.1161 -0.8309  1.4240
 7247SOL    HW222936   6.348   5.334   3.459  0.6682  2.4949  1.6031
 7248SOL     OW22937   7.359   5.003   3.052 -0.0473  0.3697  0.3199
 7248SOL    HW122938   7.393   4.973   3.136 -2.3291 -0.1221  1.1388
 7248SOL    HW222939   7.412   4.957   2.987  0.1438 -1.1954  1.5211
 7249SOL     OW22940   0.801   4.402   5.416  0.5693  0.0524  0.4020
 7249SOL    HW122941   0.856   4.480   5.416  2.3219 -1.1359  0.7848
 7249SOL    HW222942   0.751   4.409   5.334  0.7588  1.5021  0.3793
 7250SOL     OW22943   7.313   1.849   3.480 -0.2865 -0.3059 -0.1822
 7250SOL    HW122944   7.226   1.883   3.458  0.1260  0.4539 -0.6975
 7250SOL    HW222945   7.334   1.890   3.564 -0.1083  0.1147 -0.4309
 7251SOL     OW22946   7.315   7.981   1.992 -0.1176  0.0776  0.2756
 7251SOL    HW122947   7.401   8.015   1.968 -0.0258 -0.5189 -0.2822
 7251SOL    HW222948   7.288   7.929   1.916  0.0411 -1.6191  1.3148
 7252SOL     OW22949   3.449   6.520   7.973  0.2015 -0.0196  0.2952
 7252SOL    HW122950   3.520   6.583   7.981  1.2794 -1.2226  0.5782
 7252SOL    HW222951   3.455   6.488   7.883 -0.4843  0.4450  0.0834
 7253SOL     OW22952   8.201   6.273   0.799 -0.1270  0.1733 -0.2597
 7253SOL    HW122953   8.218   6.181   0.817 -0.7492  0.1825  0.4102
 7253SOL    HW222954   8.168   6.274   0.709  0.8968 -0.1303 -0.6502
 7254SOL     OW22955   2.595   5.297   1.599  0.4452 -0.1578 -0.6318
 7254SOL    HW122956   2.558   5.349   1.671  1.4431  0.3752 -0.4872
 7254SOL    HW222957   2.519   5.270   1.547 -0.7736 -3.2976  2.3497
 7255SOL     OW22958   1.706   4.088   3.603 -0.5652  0.0395  0.1418
 7255SOL    HW122959   1.655   4.121   3.530 -0.4651  0.1476  0.1195
 7255SOL    HW222960   1.763   4.022   3.564 -0.1545  0.4542  0.0277
 7256SOL     OW22961   8.511   3.147   1.118  0.5334 -0.5224 -0.2673
 7256SOL    HW122962   8.531   3.082   1.051  0.8256 -1.3968  0.6374
 7256SOL    HW222963   8.415   3.152   1.119  0.5493  0.0401 -1.2444
 7257SOL     OW22964   0.166   8.109   4.588  0.5560  0.5012 -0.0141
 7257SOL    HW122965   0.079   8.074   4.606  0.7404  1.1917  2.7260
 7257SOL    HW222966   0.150   8.199   4.560  0.3632  1.1746  2.0857
 7258SOL     OW22967   3.462   2.311   6.884  0.6889 -0.4883 -0.4730
 7258SOL    HW122968   3.411   2.302   6.964  0.1747  1.4625 -0.5474
 7258SOL    HW222969   3.455   2.225   6.842 -1.2678 -0.7475  0.2693
 7259SOL     OW22970   7.040   4.499   0.752  0.6775 -0.6492  0.3374
 7259SOL    HW122971   7.016   4.408   0.734  1.8474 -0.9063 -0.0053
 7259SOL    HW222972   7.026   4.544   0.669 -1.2969 -0.1733  0.8756
 7260SOL     OW22973   0.666   7.949   6.632 -0.2491 -0.3675  0.7281
 7260SOL    HW122974   0.605   7.968   6.560 -0.7831 -2.1291  0.6690
 7260SOL    HW222975   0.628   7.994   6.708 -1.9206 -1.7533  0.7950
 7261SOL     OW22976   3.316   7.376   4.432 -0.2774  0.2373 -0.0845
 7261SOL    HW122977   3.380   7.424   4.379 -1.1461  1.2285 -0.2717
 7261SOL    HW222978   3.324   7.285   4.402  1.8500  0.1009  0.7284
 7262SOL     OW22979   5.083   7.521   0.672 -0.5847 -0.0510  0.6198
 7262SOL    HW122980   5.174   7.544   0.691 -0.3662  0.2434 -0.7197
 7262SOL    HW222981   5.037   7.605   0.667 -0.9690 -0.2056  1.4313
 7263SOL     OW22982   1.732   3.191   1.617  0.3334  0.4963  0.4238
 7263SOL    HW122983   1.674   3.163   1.546  1.6137 -0.1019 -0.4090
 7263SOL    HW222984   1.693   3.273   1.648 -2.3017 -1.0263  1.4849
 7264SOL     OW22985   2.482   4.035   1.567 -0.1525  0.8307 -0.0512
 7264SOL    HW122986   2.413   4.061   1.629 -1.3132 -3.5046  0.7804
 7264SOL    HW222987   2.558   4.017   1.622  0.4856  1.9032 -0.5510
 7265SOL     OW22988   4.781   6.026   6.467 -0.5592 -0.6509 -0.2261
 7265SOL    HW122989   4.860   6.054   6.420 -0.6264  2.0492  1.0636
 7265SOL    HW222990   4.709   6.056   6.412 -0.6459  0.2996  0.3942
 7266SOL     OW22991   3.255   0.725   7.168  0.0604  0.4260 -0.1489
 7266SOL    HW122992   3.220   0.806   7.131 -0.4407  0.5858  0.6513
 7266SOL    HW222993   3.180   0.683   7.210  0.4655 -0.1085  0.0574
 7267SOL     OW22994   1.490   5.347   2.546 -0.2495  0.5727 -0.4805
 7267SOL    HW122995   1.477   5.414   2.478 -2.1914  0.9494  0.2185
 7267SOL    HW222996   1.496   5.396   2.627 -1.2386 -0.0489 -0.0124
 7268SOL     OW22997   5.347   7.254   8.415 -0.5325 -0.2145  0.7061
 7268SOL    HW122998   5.337   7.201   8.494  0.4425 -1.0557  0.2961
 7268SOL    HW222999   5.431   7.298   8.426  0.4301 -1.6226 -0.5381
 7269SOL     OW23000   1.423   4.414   6.013  0.1064 -0.2622 -0.0467
 7269SOL    HW123001   1.340   4.395   6.056  0.5580  1.9338  2.0238
 7269SOL    HW223002   1.400   4.476   5.944  0.0830  1.3498  1.3388
 7270SOL     OW23003   8.459   2.188   2.608 -0.1569  0.0358 -0.2931
 7270SOL    HW123004   8.428   2.112   2.658  1.1258  0.1882  0.7590
 7270SOL    HW223005   8.547   2.164   2.580  0.8580  1.6708  1.2922
 7271SOL     OW23006   0.577   6.755   6.619  0.1484  0.2618  0.2858
 7271SOL    HW123007   0.665   6.745   6.582 -0.2214 -0.2082 -0.4833
 7271SOL    HW223008   0.534   6.672   6.601 -0.4484  0.4761  0.6998
 7272SOL     OW23009   3.441   6.380   7.188 -0.0022  0.3370 -0.6305
 7272SOL    HW123010   3.364   6.328   7.212  0.9880 -1.2102 -0.6212
 7272SOL    HW223011   3.429   6.398   7.095 -0.3260 -0.0135 -0.6622
 7273SOL     OW23012   7.420   0.375   1.621  0.3904  0.2138  0.0687
 7273SOL    HW123013   7.462   0.295   1.589  1.0803  0.5157  0.2100
 7273SOL    HW223014   7.333   0.347   1.649  0.8769 -0.6233  0.7823
 7274SOL     OW23015   3.271   5.820   5.481 -0.1453 -0.2273 -0.1603
 7274SOL    HW123016   3.259   5.726   5.494  1.9960 -0.4538  0.5035
 7274SOL    HW223017   3.245   5.859   5.565  1.2877 -0.4943  0.4412
 7275SOL     OW23018   8.278   5.156   3.583 -0.2525 -0.4605  0.1264
 7275SOL    HW123019   8.258   5.248   3.601  0.3486 -0.6626  2.1925
 7275SOL    HW223020   8.359   5.159   3.533 -0.5618  0.1445 -0.3525
 7276SOL     OW23021   5.564   6.071   6.073 -0.1811  0.1731 -0.0054
 7276SOL    HW123022   5.536   6.160   6.095  1.5229  0.3353  1.8091
 7276SOL    HW223023   5.511   6.015   6.130  1.6614  0.3737  2.0741
 7277SOL     OW23024   2.998   3.433   0.347  0.0154 -0.4791 -0.3138
 7277SOL    HW123025   3.092   3.419   0.336  0.0931 -1.5114  1.3614
 7277SOL    HW223026   2.984   3.522   0.316  1.4061 -0.5769 -1.3213
 7278SOL     OW23027   8.553   1.292   7.558  0.4696 -0.2861 -0.1680
 7278SOL    HW123028   8.638   1.250   7.540  1.4120  1.3827  0.1999
 7278SOL    HW223029   8.516   1.240   7.629  1.6546 -0.4695  0.3562
 7279SOL     OW23030   5.717   5.315   2.168  0.3882 -0.0770 -0.0684
 7279SOL    HW123031   5.759   5.290   2.251  1.4396 -0.5126 -0.7152
 7279SOL    HW223032   5.624   5.323   2.190  0.8655  1.7493  1.6028
 7280SOL     OW23033   5.575   0.641   7.282  0.1010 -0.2842  0.1424
 7280SOL    HW123034   5.516   0.674   7.213  2.2068 -0.5844 -1.9309
 7280SOL    HW223035   5.625   0.572   7.239  1.6278 -0.3794  1.9777
 7281SOL     OW23036   7.103   4.247   5.393  0.2038 -0.3939 -0.6724
 7281SOL    HW123037   7.143   4.169   5.433  2.4023 -0.5603 -2.9785
 7281SOL    HW223038   7.103   4.229   5.299 -1.2175  1.5473 -1.1080
 7282SOL     OW23039   4.468   4.347   0.964  0.3333 -0.4670  0.1621
 7282SOL    HW123040   4.403   4.277   0.961  0.2301 -0.5054  1.9652
 7282SOL    HW223041   4.511   4.335   1.049  1.5563  0.5754 -0.2794
 7283SOL     OW23042   5.665   7.784   3.634 -0.3132 -1.0049  0.4048
 7283SOL    HW123043   5.643   7.700   3.593 -0.3119 -0.6253 -0.3882
 7283SOL    HW223044   5.590   7.804   3.690 -0.8739 -0.9425 -0.3478
 7284SOL     OW23045   6.662   6.105   4.591 -0.3820  0.2556 -0.2907
 7284SOL    HW123046   6.694   6.185   4.549  0.2216  0.6435  0.8691
 7284SOL    HW223047   6.730   6.082   4.655  0.0321 -1.8593 -1.4042
 7285SOL     OW23048   1.316   8.272   5.992  0.1528 -0.2425  0.0611
 7285SOL    HW123049   1.325   8.177   5.987  0.4837 -0.1607 -1.8564
 7285SOL    HW223050   1.248   8.292   5.928  0.7144  0.8853 -0.2022
 7286SOL     OW23051   3.995   0.962   7.782  0.1209 -0.0101  0.4125
 7286SOL    HW123052   3.982   1.048   7.742 -1.1752 -0.2959  0.1755
 7286SOL    HW223053   4.026   0.907   7.710  0.2728  0.0920  0.4002
 7287SOL     OW23054   5.445   0.004   4.067  0.0720 -0.3002 -0.1569
 7287SOL    HW123055   5.375  -0.000   4.002  0.2323 -1.8153 -0.2599
 7287SOL    HW223056   5.401  -0.008   4.151  0.0521  0.1053 -0.1077
 7288SOL     OW23057   8.491   6.338   2.226 -0.1611  0.0275  0.2748
 7288SOL    HW123058   8.450   6.290   2.298 -2.0188  0.8393 -0.1742
 7288SOL    HW223059   8.499   6.428   2.259  2.7905 -0.3559  0.9156
 7289SOL     OW23060   7.635   0.313   1.395 -0.3466  0.6827 -0.1246
 7289SOL    HW123061   7.712   0.263   1.367 -0.7460  0.9614 -1.8721
 7289SOL    HW223062   7.577   0.248   1.436  0.1087  0.1514 -0.3180
 7290SOL     OW23063   6.680   1.579   0.673 -0.2071  0.1790  0.4878
 7290SOL    HW123064   6.699   1.543   0.760 -0.9347  0.6147  0.8293
 7290SOL    HW223065   6.731   1.660   0.669  2.0064 -1.1338 -0.5498
 7291SOL     OW23066   2.890   3.174   4.206 -0.1263  0.3466  0.2241
 7291SOL    HW123067   2.884   3.238   4.277  0.1253 -0.8227  1.3381
 7291SOL    HW223068   2.799   3.161   4.179 -0.2822  0.4129  0.6958
 7292SOL     OW23069   5.297   2.051   6.901 -0.1020 -0.5194 -0.2645
 7292SOL    HW123070   5.284   2.143   6.925  1.1895 -0.4832  0.3709
 7292SOL    HW223071   5.251   2.002   6.970 -2.6092 -0.3910 -1.7221
 7293SOL     OW23072   0.043   6.665   4.394 -0.9414  0.0044 -0.4487
 7293SOL    HW123073   0.038   6.619   4.478  2.3009  1.0281  0.4358
 7293SOL    HW223074   0.072   6.754   4.417 -0.1670  0.3684 -2.6479
 7294SOL     OW23075   4.994   5.789   3.857 -0.3335 -0.9440 -0.4913
 7294SOL    HW123076   5.055   5.855   3.889  0.0303 -0.8802 -1.2882
 7294SOL    HW223077   4.954   5.829   3.779  0.2183 -1.8196 -1.2459
 7295SOL     OW23078   4.484   3.921   1.660  0.0502 -0.6828 -0.3012
 7295SOL    HW123079   4.486   3.927   1.564  0.7761 -0.8384 -0.3047
 7295SOL    HW223080   4.562   3.969   1.688 -1.4813  1.5735  0.3616
 7296SOL     OW23081   1.188   6.659   6.227  0.3572 -0.3525 -0.3991
 7296SOL    HW123082   1.180   6.644   6.321 -1.7171 -1.2953 -0.6644
 7296SOL    HW223083   1.249   6.592   6.197  0.0932 -0.8282  0.1123
 7297SOL     OW23084   1.743   2.231   7.138  0.5755 -0.5587  0.1788
 7297SOL    HW123085   1.786   2.166   7.083  0.2858 -0.3580 -0.2955
 7297SOL    HW223086   1.683   2.277   7.079  0.7947  0.1581  0.4932
 7298SOL     OW23087   2.638   4.246   3.569  0.0803 -0.7972  0.2110
 7298SOL    HW123088   2.672   4.174   3.623  0.8708  0.2810  1.1998
 7298SOL    HW223089   2.552   4.266   3.608  0.6180 -0.0690  1.0848
 7299SOL     OW23090   4.035   7.256   1.890  0.2933  1.2702 -0.3207
 7299SOL    HW123091   4.060   7.166   1.866 -1.9167 -0.1138  2.1415
 7299SOL    HW223092   4.097   7.280   1.958  0.1868  1.1641 -0.1854
 7300SOL     OW23093   2.382   4.658   0.153  0.1117  0.4966  0.4541
 7300SOL    HW123094   2.474   4.661   0.128  0.3429 -0.4386  1.1169
 7300SOL    HW223095   2.380   4.704   0.237 -0.0532  0.6364  0.3731
 7301SOL     OW23096   5.979   5.181   6.915  0.7171  0.0067  0.2285
 7301SOL    HW123097   5.985   5.270   6.878  0.2854  0.9690  2.3416
 7301SOL    HW223098   5.887   5.157   6.903 -0.0168  1.3032  2.6693
 7302SOL     OW23099   0.905   7.918   8.186 -0.5211 -0.1339  0.0625
 7302SOL    HW123100   0.890   8.007   8.154  0.6643 -0.0300 -0.2489
 7302SOL    HW223101   0.943   7.871   8.111 -0.6555 -0.7576  0.3747
 7303SOL     OW23102   3.542   4.653   4.370 -0.5651  0.3308 -0.4371
 7303SOL    HW123103   3.494   4.607   4.301 -1.5339  1.7506 -0.7353
 7303SOL    HW223104   3.619   4.689   4.326  0.4171 -1.2607 -0.1225
 7304SOL     OW23105   0.636   1.097   5.062 -0.6031 -0.2410 -0.6147
 7304SOL    HW123106   0.558   1.095   5.006 -1.2319 -1.1319  0.2399
 7304SOL    HW223107   0.654   1.190   5.075 -1.0302 -0.0273 -1.4854
 7305SOL     OW23108   8.252   8.097   7.002  0.0009  0.7475 -0.3706
 7305SOL    HW123109   8.218   8.170   6.950  0.3970  0.5130 -0.9741
 7305SOL    HW223110   8.316   8.137   7.061  0.7697  0.8034 -1.2160
 7306SOL     OW23111   6.673   1.843   1.967 -0.1722  0.1414  0.2478
 7306SOL    HW123112   6.691   1.756   1.931  0.3065 -1.0536  3.0920
 7306SOL    HW223113   6.581   1.859   1.948 -0.3859 -1.2059  0.0905
 7307SOL     OW23114   4.546   4.052   5.320  0.6825  0.3679 -0.1260
 7307SOL    HW123115   4.547   4.028   5.412  0.4031  1.9516  0.3343
 7307SOL    HW223116   4.578   4.143   5.319  0.5166  0.4345 -1.5600
 7308SOL     OW23117   4.115   0.122   6.874 -0.1061  0.6250 -0.2676
 7308SOL    HW123118   4.101   0.187   6.805 -0.1198  1.6034  0.6245
 7308SOL    HW223119   4.089   0.167   6.954  0.5796 -0.2459  0.4645
 7309SOL     OW23120   4.474   4.029   1.405 -0.0254  0.4924  0.1705
 7309SOL    HW123121   4.427   4.113   1.399 -0.8472  0.0580  0.4556
 7309SOL    HW223122   4.556   4.045   1.357 -1.0221  0.8744 -1.4894
 7310SOL     OW23123   6.726   0.657   5.146  0.4153 -0.6396  0.3857
 7310SOL    HW123124   6.799   0.597   5.133 -0.7882 -1.9064 -0.9156
 7310SOL    HW223125   6.730   0.716   5.071  0.5882 -0.1840  0.7527
 7311SOL     OW23126   5.070   0.681   2.633  0.0711  0.2734  0.0089
 7311SOL    HW123127   5.139   0.715   2.691 -0.7700  1.2749  0.4485
 7311SOL    HW223128   4.990   0.688   2.685 -0.6422  0.8629 -1.1495
 7312SOL     OW23129   1.170   7.420   7.266  0.1424  0.6532  0.2958
 7312SOL    HW123130   1.105   7.487   7.286  0.2319  1.1073 -0.8841
 7312SOL    HW223131   1.248   7.468   7.237  0.6599  0.0837  0.7113
 7313SOL     OW23132   6.664   1.281   2.985 -0.1442 -0.2513  0.0232
 7313SOL    HW123133   6.700   1.321   2.906  1.1548 -0.0238  0.6970
 7313SOL    HW223134   6.575   1.317   2.992 -0.2634 -0.2374 -1.2823
 7314SOL     OW23135   0.457   4.253   5.495 -0.2609 -0.3438  0.2167
 7314SOL    HW123136   0.519   4.223   5.428 -0.1208 -0.1513  0.2603
 7314SOL    HW223137   0.396   4.309   5.447 -1.1125 -1.4692 -0.0619
 7315SOL     OW23138   7.399   0.977   7.240 -0.0395 -0.4589  0.1004
 7315SOL    HW123139   7.486   1.002   7.271  0.2246 -1.7229  0.4409
 7315SOL    HW223140   7.367   0.915   7.306 -1.0216 -0.3506 -0.2532
 7316SOL     OW23141   1.115   0.394   0.924 -0.0362 -0.0516 -0.6450
 7316SOL    HW123142   1.063   0.397   1.005  0.5858 -0.2698 -0.2279
 7316SOL    HW223143   1.085   0.315   0.879  0.5757 -0.6935  0.0456
 7317SOL     OW23144   7.337   1.079   7.795  0.0915 -0.6724 -0.0018
 7317SOL    HW123145   7.269   1.087   7.728 -0.2863  2.5226  0.5895
 7317SOL    HW223146   7.307   1.010   7.853 -0.6414 -2.0267 -1.9084
 7318SOL     OW23147   2.003   2.204   2.782 -0.1745  0.2410 -0.1717
 7318SOL    HW123148   1.939   2.157   2.728  0.5301 -0.4855 -0.3918
 7318SOL    HW223149   2.018   2.286   2.734 -0.0005 -0.1384 -0.7859
 7319SOL     OW23150   3.649   2.046   6.525  0.9742  0.3544  0.3038
 7319SOL    HW123151   3.623   1.988   6.597 -1.0510  0.9555  0.1389
 7319SOL    HW223152   3.714   1.996   6.476  0.6728 -1.0030  1.2197
 7320SOL     OW23153   3.269   4.689   1.449 -0.4732 -0.6740 -0.0943
 7320SOL    HW123154   3.237   4.750   1.515 -2.5230 -0.0111 -1.6296
 7320SOL    HW223155   3.306   4.744   1.381 -0.0266 -1.2787 -0.3523
 7321SOL     OW23156   5.216   6.367   3.552  0.0635  0.2516 -0.7109
 7321SOL    HW123157   5.245   6.417   3.476  0.0589  1.4376  0.0457
 7321SOL    HW223158   5.242   6.420   3.627 -0.3039 -0.6971  0.1081
 7322SOL     OW23159   8.230   3.769   0.924 -0.2317  0.1491  0.6684
 7322SOL    HW123160   8.266   3.691   0.966 -1.3455 -0.4120  0.6230
 7322SOL    HW223161   8.258   3.762   0.833  2.3570  1.4708  1.2771
 7323SOL     OW23162   4.192   2.346   5.475  0.3037 -0.2018 -0.0427
 7323SOL    HW123163   4.263   2.316   5.417  0.6144  1.3967 -0.5307
 7323SOL    HW223164   4.128   2.275   5.472  1.2596 -1.0747 -0.6862
 7324SOL     OW23165   3.944   2.304   6.592 -0.0388  0.0643 -0.4102
 7324SOL    HW123166   3.859   2.325   6.553 -0.4915 -1.9554 -0.6391
 7324SOL    HW223167   4.005   2.368   6.554 -1.8416  3.5132  1.9882
 7325SOL     OW23168   3.654   1.538   1.194  0.3438 -0.6176 -0.0633
 7325SOL    HW123169   3.659   1.622   1.149  1.5821 -0.3969  0.4256
 7325SOL    HW223170   3.601   1.483   1.137 -0.1844  0.3827 -0.5675
 7326SOL     OW23171   1.393   7.013   1.232  0.0133  0.1217  0.8523
 7326SOL    HW123172   1.299   7.001   1.227 -0.1077  1.4776 -0.7981
 7326SOL    HW223173   1.406   7.107   1.224  1.3374  0.5144  5.0202
 7327SOL     OW23174   4.499   1.370   4.090 -0.2542 -0.2696  0.6356
 7327SOL    HW123175   4.469   1.415   4.011 -3.1738 -0.2457  1.6574
 7327SOL    HW223176   4.490   1.434   4.160 -1.8548 -1.5272  1.6602
 7328SOL     OW23177   2.931   0.488   3.490 -1.0532  0.0748  0.2142
 7328SOL    HW123178   2.896   0.483   3.579 -0.1923  1.6641  0.6791
 7328SOL    HW223179   2.981   0.570   3.488  0.7382 -0.9661 -1.0785
 7329SOL     OW23180   4.440   6.560   8.289  0.3024 -0.6419  0.5242
 7329SOL    HW123181   4.526   6.547   8.249 -0.2053 -1.3695 -0.3357
 7329SOL    HW223182   4.439   6.500   8.363  0.6909 -0.3144  0.8058
 7330SOL     OW23183   0.848   4.894   6.835  0.0461 -0.0991 -0.3633
 7330SOL    HW123184   0.935   4.927   6.815  0.1053 -0.0334 -0.0148
 7330SOL    HW223185   0.858   4.799   6.833  0.1562 -0.0922 -0.2059
 7331SOL     OW23186   1.399   7.532   0.556  0.7769  0.2970  0.2468
 7331SOL    HW123187   1.385   7.623   0.581  0.6287  0.8974 -1.7900
 7331SOL    HW223188   1.438   7.538   0.469 -0.6641 -1.5780 -0.6023
 7332SOL     OW23189   0.286   0.357   1.250  0.7214  0.2221  0.2908
 7332SOL    HW123190   0.283   0.350   1.154 -0.9415 -0.9150  0.4051
 7332SOL    HW223191   0.341   0.435   1.265  0.9330  0.4980 -1.5722
 7333SOL     OW23192   2.562   8.211   2.523  0.5044  0.3390 -0.2641
 7333SOL    HW123193   2.498   8.139   2.517 -0.7820  1.4543 -0.4876
 7333SOL    HW223194   2.640   8.170   2.561  0.1510 -1.3872 -1.2499
 7334SOL     OW23195   2.991   5.861   6.613  0.0427 -0.3109  0.5860
 7334SOL    HW123196   2.914   5.888   6.663 -0.7240 -0.4308 -0.5067
 7334SOL    HW223197   2.997   5.925   6.542  0.4070 -0.8360  0.1347
 7335SOL     OW23198   3.998   7.711   1.461  0.4245  0.4167  0.6468
 7335SOL    HW123199   3.980   7.777   1.394 -1.1724  0.6893  1.2971
 7335SOL    HW223200   3.912   7.680   1.488  1.0923 -0.8836  1.4115
 7336SOL     OW23201   4.162   4.901   7.937 -0.0053 -0.1999  0.4069
 7336SOL    HW123202   4.136   4.868   8.023 -0.0914 -0.4735  0.2769
 7336SOL    HW223203   4.079   4.922   7.894  0.0702  2.9971  1.5609
 7337SOL     OW23204   2.503   2.463   0.598 -0.4992 -0.4099  0.0288
 7337SOL    HW123205   2.422   2.502   0.565 -0.7909  0.6216  1.7979
 7337SOL    HW223206   2.528   2.399   0.532 -1.5888  0.7629 -1.6108
 7338SOL     OW23207   2.607   4.897   3.418 -0.0327  0.0652  0.0209
 7338SOL    HW123208   2.556   4.964   3.464 -1.7326 -0.5613 -0.8996
 7338SOL    HW223209   2.591   4.817   3.467 -0.6380 -0.3061 -0.7707
 7339SOL     OW23210   5.624   4.070   7.020  0.0705 -0.1473  0.0186
 7339SOL    HW123211   5.707   4.024   7.026 -0.2226 -0.5826  0.9972
 7339SOL    HW223212   5.646   4.161   7.038  0.0658 -0.5769  2.6240
 7340SOL     OW23213   2.706   2.319   4.578  0.0120  0.1951  0.1807
 7340SOL    HW123214   2.794   2.341   4.607 -0.3032 -0.2426  1.5422
 7340SOL    HW223215   2.664   2.282   4.656 -1.5509  0.9149 -0.2822
 7341SOL     OW23216   7.803   5.437   5.066  0.0292  0.1739 -0.7526
 7341SOL    HW123217   7.730   5.376   5.055 -0.3400  0.1205  1.5230
 7341SOL    HW223218   7.877   5.393   5.024 -0.7202 -0.8376 -1.0556
 7342SOL     OW23219   8.135   6.452   7.744 -0.2073  0.2386  0.6952
 7342SOL    HW123220   8.133   6.548   7.742 -0.4973  0.2205  0.2316
 7342SOL    HW223221   8.044   6.426   7.750 -0.2302 -0.0413 -0.5906
 7343SOL     OW23222   2.893   2.872   6.973 -0.6609  0.3479  0.4126
 7343SOL    HW123223   2.977   2.852   6.932  0.3646 -0.2758  2.6406
 7343SOL    HW223224   2.908   2.956   7.017 -1.2965  0.3590  0.6158
 7344SOL     OW23225   4.355   7.738   8.436  0.4934 -0.0016 -0.9000
 7344SOL    HW123226   4.308   7.666   8.478  0.1817  1.2851  1.0292
 7344SOL    HW223227   4.308   7.752   8.354 -0.1576 -1.2035 -0.7619
 7345SOL     OW23228   4.300   6.951   0.106 -0.2885 -0.5912 -0.3049
 7345SOL    HW123229   4.355   6.902   0.045  2.6381  1.6358  0.2966
 7345SOL    HW223230   4.283   7.034   0.062 -0.2538  0.0776  0.8885
 7346SOL     OW23231   6.016   5.840   7.941 -0.6637  0.2657 -0.5312
 7346SOL    HW123232   5.987   5.898   8.012 -3.2600 -1.1093 -0.3725
 7346SOL    HW223233   5.955   5.857   7.870 -0.7256 -1.4177 -0.9092
 7347SOL     OW23234   0.311   2.326   0.314 -0.6770 -0.1853 -0.1743
 7347SOL    HW123235   0.382   2.268   0.343 -1.8073 -2.0877 -0.9875
 7347SOL    HW223236   0.250   2.328   0.387 -0.6315 -0.0103 -0.1413
 7348SOL     OW23237   5.885   7.301   2.906 -0.0824 -0.0240 -0.1021
 7348SOL    HW123238   5.896   7.373   2.844  2.2919 -0.4891 -0.3124
 7348SOL    HW223239   5.887   7.342   2.992  0.9610  0.2159 -0.2303
 7349SOL     OW23240   4.015   4.120   4.650  0.2877  0.4186  0.4648
 7349SOL    HW123241   4.026   4.093   4.558  1.2322  0.1394  0.6488
 7349SOL    HW223242   3.956   4.195   4.646 -3.0771 -1.9995 -0.0338
 7350SOL     OW23243   7.606   7.286   6.631  0.6590  0.1828  0.3067
 7350SOL    HW123244   7.554   7.206   6.642  0.8037 -0.1678 -1.2041
 7350SOL    HW223245   7.559   7.353   6.680  0.5241 -0.8250  1.5955
 7351SOL     OW23246   2.097   3.944   2.968 -0.3767 -0.1608 -0.3090
 7351SOL    HW123247   2.177   3.935   2.917 -0.1364  1.6339 -0.2997
 7351SOL    HW223248   2.037   3.994   2.912 -1.1311 -0.5814  0.0915
 7352SOL     OW23249   7.611   3.106   6.843 -0.0594 -0.1368  0.3900
 7352SOL    HW123250   7.537   3.061   6.802  1.5098  0.0337 -2.9545
 7352SOL    HW223251   7.575   3.191   6.870 -1.2746 -0.3541 -0.4379
 7353SOL     OW23252   4.847   2.482   6.254 -0.9600  0.2949  0.4729
 7353SOL    HW123253   4.843   2.409   6.193 -1.2921  0.6667  0.0456
 7353SOL    HW223254   4.900   2.548   6.209  0.9832 -0.3947  1.6232
 7354SOL     OW23255   6.945   3.100   8.358 -0.0624  0.5278 -0.2624
 7354SOL    HW123256   6.864   3.123   8.312 -0.4596  1.1730  0.7419
 7354SOL    HW223257   7.000   3.178   8.351  0.0189  0.4995  0.0674
 7355SOL     OW23258   4.829   4.656   0.697 -0.3878 -0.1117  0.0054
 7355SOL    HW123259   4.742   4.621   0.712  0.0107 -1.3235 -0.4052
 7355SOL    HW223260   4.831   4.677   0.604  0.3656 -1.9289 -0.4301
 7356SOL     OW23261   5.445   1.481   8.121 -0.4517 -0.1205  0.1531
 7356SOL    HW123262   5.537   1.507   8.122  0.2297 -2.3766 -0.0914
 7356SOL    HW223263   5.399   1.557   8.159  1.2978  1.6357 -1.0443
 7357SOL     OW23264   0.701   7.509   5.754  0.0319 -0.5903  0.1307
 7357SOL    HW123265   0.669   7.460   5.829 -0.0657 -1.8683 -0.7085
 7357SOL    HW223266   0.631   7.571   5.733  0.2275  0.0505  1.3161
 7358SOL     OW23267   3.823   4.595   5.384  0.9577 -0.2266  0.4503
 7358SOL    HW123268   3.747   4.570   5.436  0.4388  1.5675  0.6217
 7358SOL    HW223269   3.815   4.543   5.304 -0.1809 -0.4402  0.6822
 7359SOL     OW23270   7.322   7.483   0.580  0.1425  0.3549 -0.3459
 7359SOL    HW123271   7.366   7.445   0.656 -0.1596  0.8005  0.0502
 7359SOL    HW223272   7.238   7.514   0.612 -0.7753 -1.1132 -1.2521
 7360SOL     OW23273   0.333   7.516   1.588  0.0934 -0.0014  0.1479
 7360SOL    HW123274   0.410   7.464   1.611 -0.8309 -0.8479  1.4879
 7360SOL    HW223275   0.300   7.549   1.672 -1.8779 -0.9662 -0.1887
 7361SOL     OW23276   1.326   1.084   3.796  0.1482  0.4669  0.4411
 7361SOL    HW123277   1.286   1.051   3.876  1.2844 -0.0797  0.8028
 7361SOL    HW223278   1.265   1.059   3.726 -0.5288  0.3722  1.0618
 7362SOL     OW23279   7.649   3.889   5.810  0.0222  0.0889  0.1964
 7362SOL    HW123280   7.621   3.968   5.857 -2.9289 -0.3176 -0.6916
 7362SOL    HW223281   7.713   3.921   5.746  0.2840  1.4429  1.0877
 7363SOL     OW23282   4.966   6.653   7.744  0.3361  0.1232 -0.1424
 7363SOL    HW123283   4.961   6.560   7.721 -0.8515  0.4192 -1.1980
 7363SOL    HW223284   5.043   6.685   7.699  0.3793 -0.2163 -0.3120
 7364SOL     OW23285   4.351   1.791   0.023  0.2307 -0.2786  0.0065
 7364SOL    HW123286   4.344   1.815  -0.069  0.5174 -2.5320 -0.6862
 7364SOL    HW223287   4.444   1.774   0.036 -0.0055 -1.4840  0.2485
 7365SOL     OW23288   2.764   1.486   6.948  0.0741  0.0380 -0.3384
 7365SOL    HW123289   2.825   1.485   6.875 -2.1988 -0.1973 -2.3810
 7365SOL    HW223290   2.766   1.396   6.982 -2.0911 -1.2316 -3.1709
 7366SOL     OW23291   4.907   5.953   8.357 -0.0215 -0.2477  0.2079
 7366SOL    HW123292   4.868   5.912   8.435  0.9744 -0.2258  0.7297
 7366SOL    HW223293   4.890   5.891   8.286 -2.0722  0.3134  0.1506
 7367SOL     OW23294   5.006   3.576   5.456  0.2986 -0.1198  0.3344
 7367SOL    HW123295   4.975   3.486   5.465  2.4428 -0.8206  1.3436
 7367SOL    HW223296   5.102   3.569   5.452  0.4675  1.9740 -1.6115
 7368SOL     OW23297   7.177   2.830   2.182  0.3016  0.2224  0.6631
 7368SOL    HW123298   7.271   2.851   2.177  0.4503 -0.2987  1.2158
 7368SOL    HW223299   7.135   2.912   2.208  0.4753  0.7444 -0.6091
 7369SOL     OW23300   3.912   7.727   3.524 -0.0571 -0.1293  0.3555
 7369SOL    HW123301   3.985   7.789   3.531  0.4309 -0.5723 -0.5606
 7369SOL    HW223302   3.953   7.642   3.540  0.2384 -0.6991 -2.8434
 7370SOL     OW23303   0.048   7.425   3.471 -0.4909 -0.4284  0.1266
 7370SOL    HW123304   0.033   7.340   3.511 -2.8363 -0.2429 -0.2333
 7370SOL    HW223305   0.036   7.487   3.543  0.0267 -0.3262  0.1295
 7371SOL     OW23306   0.230   5.094   2.589 -0.4678  0.3688 -0.0071
 7371SOL    HW123307   0.183   5.013   2.568 -0.4424  0.7100 -1.5698
 7371SOL    HW223308   0.178   5.135   2.657 -2.3650  0.6132 -1.4991
 7372SOL     OW23309   0.457   5.343   2.365 -0.2759 -0.2037 -0.4898
 7372SOL    HW123310   0.515   5.417   2.382  0.1551 -0.2865 -1.5742
 7372SOL    HW223311   0.459   5.293   2.447  1.0782 -0.1353 -0.4590
 7373SOL     OW23312   8.217   3.891   7.578  0.4194 -0.3496 -0.3948
 7373SOL    HW123313   8.174   3.837   7.511  1.8538 -1.3046 -0.5961
 7373SOL    HW223314   8.222   3.834   7.654  0.0407  0.2573  0.0903
 7374SOL     OW23315   7.351   0.147   4.803  0.4994 -0.8028  0.3661
 7374SOL    HW123316   7.264   0.187   4.809  0.1395 -1.3043 -0.9739
 7374SOL    HW223317   7.400   0.183   4.877 -0.1995  1.1204 -0.0541
 7375SOL     OW23318   4.698   3.935   4.261  0.2619  0.3268  0.1517
 7375SOL    HW123319   4.652   3.952   4.343 -0.4997  0.4262 -0.2875
 7375SOL    HW223320   4.738   3.849   4.273 -1.2021 -0.3987  0.0392
 7376SOL     OW23321   1.317   8.277   3.351  0.0108  0.0968  0.2291
 7376SOL    HW123322   1.405   8.246   3.332  0.1423 -0.5540  1.7583
 7376SOL    HW223323   1.260   8.202   3.332 -0.1729  0.3626 -0.2960
 7377SOL     OW23324   7.818   1.559   4.362  0.1968 -0.1269  0.4029
 7377SOL    HW123325   7.813   1.569   4.267  0.6478  0.9528  0.4694
 7377SOL    HW223326   7.728   1.540   4.389  0.4409 -2.8585 -0.4384
 7378SOL     OW23327   5.994   6.774   5.891 -0.6558  0.6184 -0.3440
 7378SOL    HW123328   5.985   6.726   5.809 -0.1247 -1.3496  0.6804
 7378SOL    HW223329   5.904   6.784   5.923 -0.7403 -0.7400 -0.0593
 7379SOL     OW23330   5.710   4.425   5.131 -0.0487 -0.2710  0.0173
 7379SOL    HW123331   5.734   4.514   5.157  2.4407 -0.6486 -0.6798
 7379SOL    HW223332   5.718   4.373   5.211  2.8363 -0.5702 -0.3504
 7380SOL     OW23333   3.769   6.226   6.405 -0.3919  0.3430 -0.5454
 7380SOL    HW123334   3.834   6.159   6.421  1.2209  1.8564 -0.4609
 7380SOL    HW223335   3.688   6.178   6.389 -0.7694 -1.5989  5.1538
 7381SOL     OW23336   4.957   5.924   7.586  0.5172 -0.0757  0.1539
 7381SOL    HW123337   4.959   5.875   7.668 -0.5187 -1.0049 -0.3661
 7381SOL    HW223338   4.938   6.014   7.613  0.5002 -0.3054  0.9499
 7382SOL     OW23339   4.111   6.653   4.356 -0.0589 -0.3180 -0.2905
 7382SOL    HW123340   4.196   6.610   4.365  0.6839  1.1671  0.2199
 7382SOL    HW223341   4.122   6.713   4.282 -1.2630 -1.3861 -1.3893
 7383SOL     OW23342   3.389   5.903   6.499  0.0684  0.4607  0.3022
 7383SOL    HW123343   3.431   5.981   6.535  2.0896  0.2290 -1.3678
 7383SOL    HW223344   3.337   5.935   6.426  0.8921  0.3004 -0.3790
 7384SOL     OW23345   6.196   8.368   6.462 -0.5239 -0.0620 -0.6061
 7384SOL    HW123346   6.166   8.459   6.463 -1.5059 -0.1215 -4.5917
 7384SOL    HW223347   6.141   8.324   6.527 -1.7653  1.7682 -0.3241
 7385SOL     OW23348   5.679   1.966   3.149 -0.0573  0.3899 -0.0920
 7385SOL    HW123349   5.623   2.029   3.196  0.3387 -0.8122  2.1327
 7385SOL    HW223350   5.618   1.906   3.107 -0.5077 -0.4685  1.6994
 7386SOL     OW23351   4.923   2.510   8.449  0.8685 -0.3643  0.0315
 7386SOL    HW123352   4.874   2.589   8.426 -3.4939 -2.9137 -0.6435
 7386SOL    HW223353   4.918   2.507   8.545 -0.1092 -0.3770 -0.0009
 7387SOL     OW23354   0.913   0.411   6.225  0.2050 -0.2642  0.0621
 7387SOL    HW123355   0.825   0.421   6.187 -0.4262 -1.7349  1.0522
 7387SOL    HW223356   0.908   0.459   6.307  0.8323  0.9263 -0.5695
 7388SOL     OW23357   2.877   1.449   4.714 -0.2541  0.4258 -0.0761
 7388SOL    HW123358   2.912   1.485   4.632  0.9158 -1.1683 -0.3418
 7388SOL    HW223359   2.810   1.511   4.741  1.8971  2.9964 -0.2562
 7389SOL     OW23360   6.316   1.113   5.422  0.9376 -0.0035 -0.1637
 7389SOL    HW123361   6.313   1.067   5.507 -1.2037 -1.2277 -0.8218
 7389SOL    HW223362   6.303   1.044   5.357 -1.3450  1.3227 -1.2534
 7390SOL     OW23363   7.471   7.638   5.034  0.3627  0.8837 -0.3413
 7390SOL    HW123364   7.384   7.616   5.002  0.6015  0.5267 -0.7626
 7390SOL    HW223365   7.529   7.620   4.960  1.2456 -2.2050  0.9054
 7391SOL     OW23366   2.575   1.865   2.160 -0.5520  0.1978 -0.1544
 7391SOL    HW123367   2.555   1.956   2.135  0.8746  0.3362 -0.8894
 7391SOL    HW223368   2.525   1.812   2.099 -0.3360  0.5139 -0.6145
 7392SOL     OW23369   3.053   7.134   6.250 -0.3923  0.7685  0.3150
 7392SOL    HW123370   3.135   7.102   6.287 -1.1394  0.1806  1.5303
 7392SOL    HW223371   3.079   7.181   6.171  0.9129 -1.2659 -0.5220
 7393SOL     OW23372   8.137   2.237   4.354  0.3038  0.6030  0.8271
 7393SOL    HW123373   8.101   2.324   4.340 -2.3007 -0.6079 -0.7625
 7393SOL    HW223374   8.072   2.193   4.409 -0.4637 -1.4412 -1.5205
 7394SOL     OW23375   2.787   5.081   7.423  0.3220 -0.6359  0.1831
 7394SOL    HW123376   2.776   5.019   7.495 -2.5636  0.1020  0.4949
 7394SOL    HW223377   2.747   5.038   7.347  1.3955 -0.5162 -0.4776
 7395SOL     OW23378   4.230   5.785   4.094  0.0148  0.3450  0.3809
 7395SOL    HW123379   4.190   5.756   4.012  0.6266  0.0297  0.1848
 7395SOL    HW223380   4.199   5.875   4.106 -0.7599  0.1017  0.2481
 7396SOL     OW23381   7.876   0.266   7.615 -0.3897  0.1274 -0.1442
 7396SOL    HW123382   7.829   0.323   7.676 -1.7591  0.1339 -1.1450
 7396SOL    HW223383   7.921   0.327   7.556 -0.9499  0.1712 -0.5352
 7397SOL     OW23384   4.867   7.080   7.758 -0.1243 -0.3386  0.4810
 7397SOL    HW123385   4.909   7.044   7.836 -0.1521 -0.0611  0.6268
 7397SOL    HW223386   4.777   7.050   7.764 -0.0613 -0.5441  0.4135
 7398SOL     OW23387   3.479   6.221   8.004 -0.0588  0.3889 -0.3924
 7398SOL    HW123388   3.453   6.312   8.019  0.6004  0.5393 -0.1690
 7398SOL    HW223389   3.486   6.183   8.091  0.5362  0.3668 -0.4463
 7399SOL     OW23390   1.183   0.067   7.462  0.3156  0.0557  0.2152
 7399SOL    HW123391   1.179   0.158   7.491  0.1452  0.9556 -2.4161
 7399SOL    HW223392   1.264   0.060   7.413  0.8195 -1.5235  1.1872
 7400SOL     OW23393   0.638   6.310   6.745  0.0860  0.0613  0.0356
 7400SOL    HW123394   0.700   6.265   6.802  1.4473  0.5151 -1.0220
 7400SOL    HW223395   0.583   6.360   6.804 -0.3566 -1.6236  1.1185
 7401SOL     OW23396   7.636   6.567   4.170 -0.1298  0.5862  0.1967
 7401SOL    HW123397   7.640   6.487   4.223  0.1146  0.4113 -0.0875
 7401SOL    HW223398   7.727   6.598   4.167 -0.2182  0.8591  0.2793
 7402SOL     OW23399   6.505   4.409   7.912  0.6412 -0.5131 -0.5552
 7402SOL    HW123400   6.424   4.363   7.937  0.4436 -0.0648 -0.3636
 7402SOL    HW223401   6.508   4.485   7.970  1.9919 -1.3380  0.4897
 7403SOL     OW23402   1.799   5.787   3.676 -0.4899  0.2294  0.6897
 7403SOL    HW123403   1.866   5.763   3.740 -0.1888 -0.3089  0.1826
 7403SOL    HW223404   1.739   5.712   3.674 -0.2863  0.0734  0.0714
 7404SOL     OW23405   3.053   3.963   4.851  0.3500 -0.0864  0.4820
 7404SOL    HW123406   3.140   3.967   4.892  0.9725 -1.2521 -0.6654
 7404SOL    HW223407   3.001   3.909   4.910  0.2141  1.0388  1.4433
 7405SOL     OW23408   2.419   2.103   4.158 -0.0363  0.0059 -0.4475
 7405SOL    HW123409   2.487   2.061   4.210  0.7575 -1.3565 -2.4473
 7405SOL    HW223410   2.464   2.177   4.115 -0.4308  0.5267  0.0270
 7406SOL     OW23411   1.991   7.776   0.284 -0.0637  0.3701  0.7577
 7406SOL    HW123412   1.921   7.837   0.309  1.8472  2.5693  1.1632
 7406SOL    HW223413   2.045   7.769   0.363  0.3496 -1.0295  0.3612
 7407SOL     OW23414   2.050   3.928   0.561 -0.2262  0.0609 -0.8837
 7407SOL    HW123415   2.066   3.842   0.599  1.6196  0.6455 -0.2247
 7407SOL    HW223416   1.983   3.912   0.493 -2.0608 -1.3486  1.1235
 7408SOL     OW23417   7.792   7.606   6.337 -0.1044  0.2207 -0.0737
 7408SOL    HW123418   7.739   7.643   6.266 -0.2708  0.6752  0.2812
 7408SOL    HW223419   7.743   7.627   6.416  0.7766  0.9587  0.2938
 7409SOL     OW23420   7.185   3.278   0.984  0.6121 -0.3103  0.4270
 7409SOL    HW123421   7.138   3.305   0.904  1.5117 -1.0703 -0.3808
 7409SOL    HW223422   7.210   3.360   1.026  0.0913  0.1020 -0.0514
 7410SOL     OW23423   5.413   3.077   1.821  0.2901  0.1077  0.2085
 7410SOL    HW123424   5.382   2.996   1.779 -0.6119 -0.6018  2.1248
 7410SOL    HW223425   5.504   3.084   1.795  0.4752 -1.7066  0.1984
 7411SOL     OW23426   7.250   1.253   1.450  0.2462 -0.0794  0.5654
 7411SOL    HW123427   7.321   1.193   1.428  1.1081  0.5690  1.5112
 7411SOL    HW223428   7.179   1.197   1.481  0.4845 -0.7001  0.0032
 7412SOL     OW23429   0.056   0.673   8.235  1.2437 -0.1025  0.1931
 7412SOL    HW123430   0.109   0.697   8.311 -0.0658  0.4462  0.9556
 7412SOL    HW223431   0.059   0.750   8.178  0.5091  0.2995  0.6806
 7413SOL     OW23432   4.496   2.815   1.290  0.5574  0.2024 -0.1319
 7413SOL    HW123433   4.475   2.726   1.320 -1.2576  0.3721 -0.7641
 7413SOL    HW223434   4.569   2.842   1.344 -0.6251 -0.6510  2.0076
 7414SOL     OW23435   1.470   5.750   7.943 -0.3801 -0.0946 -0.0528
 7414SOL    HW123436   1.524   5.719   8.015 -1.5232 -1.7763  0.1500
 7414SOL    HW223437   1.532   5.763   7.870  0.6174  0.5380  0.8843
 7415SOL     OW23438   5.610   7.482   4.519 -0.3258  0.3199  0.4859
 7415SOL    HW123439   5.693   7.502   4.476 -0.0054 -0.7954  0.5597
 7415SOL    HW223440   5.550   7.460   4.448 -0.2402  0.0196  0.5066
 7416SOL     OW23441   1.277   0.394   1.476  0.1986 -0.0584  0.3517
 7416SOL    HW123442   1.304   0.432   1.560  1.3648 -2.2753  1.0827
 7416SOL    HW223443   1.196   0.347   1.496 -0.6805  1.1278 -0.3023
 7417SOL     OW23444   4.700   8.173   1.427  0.3901  0.3852 -0.2985
 7417SOL    HW123445   4.689   8.262   1.393 -1.7950  0.1421 -0.3425
 7417SOL    HW223446   4.735   8.185   1.515 -0.5130  1.3261 -0.0488
 7418SOL     OW23447   5.742   3.927   4.087 -0.5208 -0.1725 -0.1828
 7418SOL    HW123448   5.708   3.994   4.146 -0.0904 -0.1040 -0.0108
 7418SOL    HW223449   5.804   3.877   4.140  1.5594  1.2553 -1.1180
 7419SOL     OW23450   8.306   3.280   4.900 -0.1755 -0.4396  0.1363
 7419SOL    HW123451   8.312   3.239   4.987 -0.0373 -0.1758  0.2507
 7419SOL    HW223452   8.281   3.371   4.918  1.1002 -0.0401 -0.0195
 7420SOL     OW23453   8.266   3.279   2.998 -0.3145 -0.5388  0.0907
 7420SOL    HW123454   8.246   3.211   3.062  0.6032  0.5798  1.6214
 7420SOL    HW223455   8.358   3.265   2.975  0.2573  0.8874  1.3624
 7421SOL     OW23456   4.158   4.267   0.231 -0.3484  0.0251  0.1467
 7421SOL    HW123457   4.222   4.264   0.160 -1.0612  2.3858 -0.6691
 7421SOL    HW223458   4.101   4.191   0.214  1.3081 -1.2533  0.0475
 7422SOL     OW23459   6.099   8.101   2.413  0.2894  0.3441 -0.5930
 7422SOL    HW123460   6.150   8.158   2.355 -0.8492  0.6914 -1.2887
 7422SOL    HW223461   6.154   8.024   2.426  0.5614  0.2361 -2.1984
 7423SOL     OW23462   3.561   6.896   4.628 -0.2423  0.2112 -0.0709
 7423SOL    HW123463   3.474   6.932   4.643  0.1447  1.6064 -1.0471
 7423SOL    HW223464   3.621   6.965   4.656  0.5256  0.0772 -1.3282
 7424SOL     OW23465   3.115   5.762   1.869 -0.3223 -0.2410 -0.0365
 7424SOL    HW123466   3.125   5.671   1.844 -0.0271 -0.1213 -0.3610
 7424SOL    HW223467   3.079   5.759   1.958 -2.2965 -0.6735 -0.8001
 7425SOL     OW23468   6.049   7.024   2.943  0.8242  0.3631 -0.3356
 7425SOL    HW123469   6.015   7.058   3.026  0.6718  0.3997 -0.4126
 7425SOL    HW223470   6.134   7.066   2.933  0.9985  0.0975 -0.0281
 7426SOL     OW23471   3.162   8.002   4.187 -0.1187  0.5111 -0.3998
 7426SOL    HW123472   3.084   8.047   4.155  0.8853  2.2597 -0.5420
 7426SOL    HW223473   3.131   7.917   4.216 -1.9255  0.8418 -1.2439
 7427SOL     OW23474   4.485   8.501   1.900  0.1861  0.1191  0.1974
 7427SOL    HW123475   4.520   8.416   1.925 -0.1574 -0.2874 -0.6430
 7427SOL    HW223476   4.440   8.484   1.817 -0.4832  0.9776  0.3735
 7428SOL     OW23477   1.023   1.380   5.130 -0.9659 -0.4412 -0.4311
 7428SOL    HW123478   1.046   1.336   5.211 -0.5047  0.0103 -0.3083
 7428SOL    HW223479   0.954   1.443   5.155  1.2961  1.9221  0.2828
 7429SOL     OW23480   5.094   1.071   2.409  0.5770 -0.2068  0.5561
 7429SOL    HW123481   5.032   0.998   2.406 -0.5083  0.7059 -0.4845
 7429SOL    HW223482   5.059   1.129   2.476 -0.4103  0.8844 -0.8603
 7430SOL     OW23483   6.720   6.958   7.991  0.1690 -0.0841  0.4241
 7430SOL    HW123484   6.717   7.045   8.032 -1.2688  0.3744 -0.5747
 7430SOL    HW223485   6.785   6.910   8.042 -1.3066  0.5404  3.0482
 7431SOL     OW23486   0.807   2.880   3.573 -0.3786  0.5017  0.1447
 7431SOL    HW123487   0.879   2.888   3.636 -2.0646  0.9850  2.1002
 7431SOL    HW223488   0.804   2.964   3.528 -1.7632  1.7944  2.4526
 7432SOL     OW23489   6.089   7.078   5.531 -0.0202  0.0026  0.3473
 7432SOL    HW123490   6.118   6.987   5.538 -0.7019 -0.3541 -1.0874
 7432SOL    HW223491   6.170   7.128   5.516  0.1603 -0.6608 -1.0803
 7433SOL     OW23492   2.128   6.537   2.835 -0.2280 -0.9901  0.0595
 7433SOL    HW123493   2.103   6.446   2.818 -0.2487 -0.7270 -1.4085
 7433SOL    HW223494   2.159   6.570   2.751  2.2810 -0.4062  1.1139
 7434SOL     OW23495   0.382   6.891   5.488 -0.2003 -0.6773  0.0037
 7434SOL    HW123496   0.447   6.936   5.433 -0.9961 -0.6430 -0.9308
 7434SOL    HW223497   0.300   6.898   5.440 -1.1389  0.1436  1.6310
 7435SOL     OW23498   6.457   1.358   5.405  0.1269 -0.3573 -0.6128
 7435SOL    HW123499   6.428   1.271   5.429  2.4348 -1.2649 -0.8414
 7435SOL    HW223500   6.520   1.382   5.474  0.7117  0.4329 -1.3999
 7436SOL     OW23501   5.308   3.674   8.166  0.4620  0.3535  0.3851
 7436SOL    HW123502   5.245   3.609   8.136  0.9496  0.3051 -0.5592
 7436SOL    HW223503   5.256   3.753   8.182  0.1320  0.2670 -0.2368
 7437SOL     OW23504   4.404   7.823   2.973 -0.0661 -0.0961 -0.4530
 7437SOL    HW123505   4.479   7.851   2.920 -1.8701  1.0776 -2.6005
 7437SOL    HW223506   4.391   7.731   2.949  1.8874 -0.9802  1.5721
 7438SOL     OW23507   1.849   6.007   5.987  0.6509  0.0396  0.0644
 7438SOL    HW123508   1.784   6.037   6.050  0.7188  1.8150 -0.6808
 7438SOL    HW223509   1.817   6.038   5.902  0.6907 -2.0971 -0.7941
 7439SOL     OW23510   0.702   0.447   6.437  0.8767 -0.4476  0.1339
 7439SOL    HW123511   0.651   0.463   6.517 -0.6483 -0.7588 -0.7470
 7439SOL    HW223512   0.746   0.364   6.454  2.5874  0.6581  1.6010
 7440SOL     OW23513   7.415   6.601   3.054  0.1813 -0.4812  0.5451
 7440SOL    HW123514   7.403   6.692   3.026  1.3531 -0.1281  1.1480
 7440SOL    HW223515   7.508   6.584   3.042  0.1026 -1.3688  1.1279
 7441SOL     OW23516   5.116   5.660   0.876 -0.2012  0.2411  0.2124
 7441SOL    HW123517   5.123   5.571   0.840 -1.5730  0.0311  0.4405
 7441SOL    HW223518   5.059   5.651   0.953 -0.5545  1.3650  0.0966
 7442SOL     OW23519   6.958   3.117   5.119  0.5045 -0.5965 -0.4242
 7442SOL    HW123520   6.871   3.078   5.117  0.3369 -0.9822  3.9697
 7442SOL    HW223521   7.011   3.053   5.166  2.3069  1.0330 -0.1152
 7443SOL     OW23522   2.491   1.716   5.462  0.2766  0.2238 -0.5157
 7443SOL    HW123523   2.543   1.714   5.382  0.3586  0.4484 -0.4690
 7443SOL    HW223524   2.508   1.631   5.503  2.1808  1.0075  0.4773
 7444SOL     OW23525   7.862   2.071   0.976  0.2160  0.3612 -0.2094
 7444SOL    HW123526   7.782   2.120   0.998 -0.1891 -0.5413  0.4257
 7444SOL    HW223527   7.842   1.981   1.003  0.9019 -0.1785 -1.4188
 7445SOL     OW23528   3.975   7.501   4.367  0.3211  0.6792 -0.0955
 7445SOL    HW123529   4.063   7.471   4.343  0.2526  0.6783 -0.3461
 7445SOL    HW223530   3.985   7.534   4.456  0.8810  1.9341 -0.5939
 7446SOL     OW23531   1.159   6.375   4.668 -0.5451  0.2133  0.0576
 7446SOL    HW123532   1.096   6.363   4.598 -0.6188 -1.8005  0.4090
 7446SOL    HW223533   1.110   6.357   4.749  0.0322  0.3901  0.4592
 7447SOL     OW23534   5.122   2.858   3.964  0.6331  0.1583 -0.0692
 7447SOL    HW123535   5.139   2.950   3.982 -1.3648  0.9330 -1.8626
 7447SOL    HW223536   5.027   2.851   3.957  0.6279 -2.2835  1.0487
 7448SOL     OW23537   0.589   8.390   5.059 -0.1712  0.3545  0.3228
 7448SOL    HW123538   0.569   8.334   4.984 -0.1873 -0.9102  1.2362
 7448SOL    HW223539   0.619   8.330   5.127 -0.8176  1.3746  1.5687
 7449SOL     OW23540   3.184   1.856   0.496  0.3873  0.1021 -0.0455
 7449SOL    HW123541   3.160   1.800   0.570  1.6285 -0.8588 -0.3379
 7449SOL    HW223542   3.242   1.801   0.442 -2.0548  0.0211 -2.8330
 7450SOL     OW23543   4.055   4.544   6.383 -0.0009 -0.5686  0.3287
 7450SOL    HW123544   4.017   4.570   6.299  0.6798  0.9202  0.4590
 7450SOL    HW223545   4.007   4.465   6.407 -1.6010  0.1163 -0.4816
 7451SOL     OW23546   7.004   5.205   1.619  0.5486 -0.0744 -0.1852
 7451SOL    HW123547   6.963   5.177   1.702  2.1233 -1.4647  0.1793
 7451SOL    HW223548   6.954   5.282   1.592 -1.0887 -0.5978  1.1837
 7452SOL     OW23549   0.079   3.867   1.424  0.3491 -0.3487  0.3390
 7452SOL    HW123550   0.032   3.848   1.343  0.8492 -0.8907  0.1728
 7452SOL    HW223551   0.111   3.957   1.413 -0.2717 -0.1268  0.2784
 7453SOL     OW23552   0.638   7.274   3.091  0.2420  0.2683 -0.0955
 7453SOL    HW123553   0.559   7.328   3.099  0.7393  1.0603 -0.3652
 7453SOL    HW223554   0.646   7.258   2.997  0.2090 -0.1050 -0.0340
 7454SOL     OW23555   3.125   1.360   6.410 -0.1834 -0.1802 -0.0806
 7454SOL    HW123556   3.113   1.290   6.475 -1.1105  1.2755  1.3705
 7454SOL    HW223557   3.172   1.317   6.338  0.2285 -2.0354  1.2145
 7455SOL     OW23558   0.960   7.640   0.197  0.2760  0.2554 -0.2683
 7455SOL    HW123559   0.987   7.665   0.109 -0.2988 -0.9726 -0.8247
 7455SOL    HW223560   1.035   7.592   0.233  1.3692  2.5986  0.7898
 7456SOL     OW23561   5.727   7.375   6.156 -0.0922  0.0355  0.2485
 7456SOL    HW123562   5.783   7.453   6.154  0.8023 -0.6081 -1.0740
 7456SOL    HW223563   5.645   7.404   6.115  0.1140  0.3844  0.0730
 7457SOL     OW23564   1.400   4.872   2.654 -0.1434 -0.0767 -0.2279
 7457SOL    HW123565   1.459   4.927   2.706 -1.2507  1.0468 -0.1282
 7457SOL    HW223566   1.346   4.827   2.719  0.5802 -1.1186 -0.3204
 7458SOL     OW23567   7.262   2.161   5.107  0.1897 -0.1273 -0.0556
 7458SOL    HW123568   7.243   2.092   5.043 -1.0005  2.0018 -2.1670
 7458SOL    HW223569   7.348   2.194   5.081  1.3668 -1.5948  1.7730
 7459SOL     OW23570   6.752   0.747   3.789 -0.4598 -0.5004  0.3845
 7459SOL    HW123571   6.658   0.753   3.805 -0.4632 -0.5031  0.3661
 7459SOL    HW223572   6.760   0.747   3.693 -0.4189 -0.1523  0.3869
 7460SOL     OW23573   7.793   4.913   1.362 -0.1297 -0.1742 -0.2809
 7460SOL    HW123574   7.872   4.949   1.403 -0.9986 -0.1109  1.4692
 7460SOL    HW223575   7.741   4.881   1.436 -1.5697 -0.5588 -1.4197
 7461SOL     OW23576   6.863   6.847   0.753 -0.0739 -0.3995 -0.5559
 7461SOL    HW123577   6.887   6.829   0.662 -0.3455  0.1965 -0.7494
 7461SOL    HW223578   6.843   6.761   0.790 -1.3156 -0.5233 -1.4557
 7462SOL     OW23579   4.375   6.971   1.871  0.6391 -0.3891 -0.7747
 7462SOL    HW123580   4.448   6.927   1.826  0.7314 -0.8187 -0.2144
 7462SOL    HW223581   4.414   7.011   1.948  0.2982 -0.5708 -0.5031
 7463SOL     OW23582   5.273   3.816   2.698  0.6824 -0.7944 -0.3322
 7463SOL    HW123583   5.221   3.895   2.690  0.2197 -1.1517 -0.9928
 7463SOL    HW223584   5.209   3.745   2.694  1.2818 -1.3242 -2.8231
 7464SOL     OW23585   0.011   3.823   4.620  0.2922  0.0537 -0.0456
 7464SOL    HW123586   0.038   3.910   4.591  0.5787 -0.9127 -3.0016
 7464SOL    HW223587  -0.064   3.801   4.565 -1.1836 -0.7523  2.1560
 7465SOL     OW23588   3.376   2.358   4.148 -0.1727 -0.4639 -0.4461
 7465SOL    HW123589   3.410   2.305   4.076  0.2334 -0.3518 -0.3352
 7465SOL    HW223590   3.345   2.438   4.106 -1.1246 -0.9275 -0.6653
 7466SOL     OW23591   4.934   7.833   7.487 -0.0500 -0.5771 -0.5262
 7466SOL    HW123592   4.893   7.747   7.481 -0.2515 -0.5218 -0.0528
 7466SOL    HW223593   5.007   7.821   7.548 -0.9722 -0.0998  0.7158
 7467SOL     OW23594   1.548   8.298   0.140  0.5080 -0.2939  0.1807
 7467SOL    HW123595   1.590   8.264   0.219  2.4552  1.2124 -0.1273
 7467SOL    HW223596   1.620   8.333   0.088 -0.6544 -1.5931 -2.4981
 7468SOL     OW23597   4.572   2.624   7.540  0.0206 -0.2278  0.7554
 7468SOL    HW123598   4.511   2.601   7.470 -0.2807 -1.2097  1.3242
 7468SOL    HW223599   4.517   2.656   7.611  0.0730 -1.8320  1.5535
 7469SOL     OW23600   5.647   6.479   8.457 -0.3820 -0.3980 -0.2254
 7469SOL    HW123601   5.611   6.556   8.412  1.8619 -0.2390 -1.9196
 7469SOL    HW223602   5.589   6.407   8.431 -1.7746  0.4531  0.3767
 7470SOL     OW23603   2.976   6.135   3.116 -0.3767 -0.4638 -0.1307
 7470SOL    HW123604   3.013   6.211   3.071 -0.1701  0.6271  1.7578
 7470SOL    HW223605   2.884   6.136   3.093  0.1834 -1.6138 -2.7258
 7471SOL     OW23606   4.386   3.200   5.211 -0.0049  0.3003 -0.0245
 7471SOL    HW123607   4.338   3.275   5.246  0.9740  0.6622  0.5702
 7471SOL    HW223608   4.475   3.208   5.247  0.9898  0.5477 -2.3314
 7472SOL     OW23609   6.053   3.058   5.064 -0.1083  0.2639  0.2449
 7472SOL    HW123610   6.145   3.035   5.051 -0.4364 -0.1063 -1.8097
 7472SOL    HW223611   6.008   2.975   5.077 -0.3939  0.2467 -0.7268
 7473SOL     OW23612   2.630   3.446   0.414 -0.0782 -0.0856  0.0113
 7473SOL    HW123613   2.698   3.401   0.464  1.6450  0.0032 -2.0933
 7473SOL    HW223614   2.574   3.375   0.382  1.9781 -0.8244 -2.3536
 7474SOL     OW23615   8.117   5.141   8.512  0.0019 -0.1849  0.3679
 7474SOL    HW123616   8.078   5.055   8.494  0.1264 -0.0733 -0.4524
 7474SOL    HW223617   8.056   5.204   8.474  0.1681  0.0650  0.5151
 7475SOL     OW23618   6.615   4.941   4.331 -0.4999  0.1738  0.8704
 7475SOL    HW123619   6.668   5.012   4.296 -0.6955 -0.0522  0.0869
 7475SOL    HW223620   6.570   4.979   4.407  0.9750  0.2855  1.7144
 7476SOL     OW23621   3.133   2.819   7.341 -0.2087  0.9922 -0.0462
 7476SOL    HW123622   3.112   2.912   7.331 -0.6498  0.7495 -1.4900
 7476SOL    HW223623   3.048   2.775   7.337  0.2208  0.2687 -2.6742
 7477SOL     OW23624   2.661   6.621   6.049  0.5274  0.0979 -0.0359
 7477SOL    HW123625   2.626   6.551   5.994  2.6620 -1.3627  0.3405
 7477SOL    HW223626   2.589   6.683   6.057 -1.3334 -1.8274 -0.7512
 7478SOL     OW23627   4.460   0.316   2.085  0.3202 -0.1281 -0.0888
 7478SOL    HW123628   4.407   0.395   2.071  0.5302 -0.0642 -0.5475
 7478SOL    HW223629   4.532   0.345   2.140  1.3096  0.3936 -1.6097
 7479SOL     OW23630   5.274   3.266   6.447 -0.0972 -0.3824 -0.1138
 7479SOL    HW123631   5.311   3.303   6.366  0.6262  0.5563  0.6200
 7479SOL    HW223632   5.284   3.335   6.512 -3.3685  0.0167  0.1306
 7480SOL     OW23633   0.647   6.477   4.553 -0.5436  0.5608  0.0616
 7480SOL    HW123634   0.568   6.422   4.552 -0.0455 -0.2163  1.2233
 7480SOL    HW223635   0.689   6.460   4.468  0.2585 -1.9183  0.8642
 7481SOL     OW23636   5.369   0.397   4.917 -0.2984  0.2351  0.2162
 7481SOL    HW123637   5.316   0.334   4.965  1.4385 -2.5166 -1.2490
 7481SOL    HW223638   5.441   0.419   4.977 -1.2429  1.3896  0.9651
 7482SOL     OW23639   6.468   3.167   1.997 -0.3586 -0.2767 -0.6088
 7482SOL    HW123640   6.476   3.075   1.971  0.7217 -0.3153 -0.1941
 7482SOL    HW223641   6.550   3.207   1.967 -0.8308  0.5650 -0.8026
 7483SOL     OW23642   7.433   6.088   4.811 -0.5204 -0.4222  0.3876
 7483SOL    HW123643   7.496   6.118   4.877 -2.6988  1.3548  1.7790
 7483SOL    HW223644   7.410   6.000   4.838  3.5979 -2.5679 -1.9807
 7484SOL     OW23645   2.620   6.585   7.917 -0.4617  0.2715 -0.0110
 7484SOL    HW123646   2.671   6.525   7.863 -1.3164  0.2090 -0.7622
 7484SOL    HW223647   2.574   6.641   7.855 -1.3849  0.2633  0.6374
 7485SOL     OW23648   1.825   7.311   2.771 -0.1308  0.3091  0.4243
 7485SOL    HW123649   1.810   7.254   2.696  0.3482 -0.2981  0.7860
 7485SOL    HW223650   1.910   7.285   2.806 -1.2406 -0.8780  2.4547
 7486SOL     OW23651   0.129   2.559   8.370 -0.2261 -0.5648 -0.0688
 7486SOL    HW123652   0.163   2.648   8.358 -0.6101 -0.6374 -2.1435
 7486SOL    HW223653   0.202   2.502   8.350  0.3670 -0.7975  2.4071
 7487SOL     OW23654   8.198   3.856   8.390  0.2377 -0.4386 -0.5173
 7487SOL    HW123655   8.175   3.879   8.300  1.2802  0.3621 -0.5898
 7487SOL    HW223656   8.125   3.802   8.420 -1.1753  1.0629 -1.1119
 7488SOL     OW23657   5.884   2.911   7.888 -0.1430  0.6534  0.0704
 7488SOL    HW123658   5.815   2.850   7.916  0.7061  0.2020  1.2454
 7488SOL    HW223659   5.843   2.997   7.893 -1.1684  0.2709 -1.0086
 7489SOL     OW23660   5.182   5.112   3.697  0.1946  0.2471  0.0891
 7489SOL    HW123661   5.230   5.036   3.730 -1.4701 -0.4051  1.1275
 7489SOL    HW223662   5.118   5.076   3.636 -1.3666  0.6265  1.4315
 7490SOL     OW23663   4.011   4.866   3.019 -0.0952 -0.3760  0.1207
 7490SOL    HW123664   3.988   4.784   3.062  1.2103 -0.5629  0.5037
 7490SOL    HW223665   4.009   4.931   3.088  1.9444 -0.6666  0.5189
 7491SOL     OW23666   7.083   1.298   4.487 -0.1727  0.4101  0.1028
 7491SOL    HW123667   7.114   1.386   4.509 -0.3933  0.6156 -0.4001
 7491SOL    HW223668   6.991   1.311   4.462 -0.1738  0.0490 -0.0746
 7492SOL     OW23669   4.393   4.599   5.394  0.2137  0.4574 -0.1520
 7492SOL    HW123670   4.346   4.669   5.349 -1.7662 -0.1730  0.8483
 7492SOL    HW223671   4.373   4.611   5.487  0.1166 -1.2122  0.0776
 7493SOL     OW23672   8.450   7.182   4.193  0.1008  0.6213 -0.0517
 7493SOL    HW123673   8.426   7.220   4.278  1.7087  0.2216  0.6258
 7493SOL    HW223674   8.381   7.211   4.133 -0.7207  1.4560  1.2477
 7494SOL     OW23675   0.518   5.731   2.263 -0.1442  0.1712  0.4330
 7494SOL    HW123676   0.435   5.728   2.215 -0.4532  0.8715  0.9077
 7494SOL    HW223677   0.579   5.685   2.206 -0.7045  0.2214 -0.2350
 7495SOL     OW23678   5.288   5.472   4.729 -0.4207 -0.6885 -0.0579
 7495SOL    HW123679   5.303   5.395   4.783 -0.4068 -0.5770  0.0988
 7495SOL    HW223680   5.247   5.439   4.650 -2.6541 -0.5930  1.0044
 7496SOL     OW23681   4.044   6.018   5.617 -0.2141 -0.1454 -0.2765
 7496SOL    HW123682   4.069   6.089   5.559  1.1509  1.2381  1.8418
 7496SOL    HW223683   4.112   6.017   5.685 -2.9990  0.1956  2.8156
 7497SOL     OW23684   3.960   4.047   0.072 -0.1609  0.5060 -0.2852
 7497SOL    HW123685   3.967   3.966   0.123 -1.1535 -0.3615 -1.4750
 7497SOL    HW223686   4.041   4.050   0.022  0.6259  1.1394  0.9679
 7498SOL     OW23687   6.428   7.547   6.307 -0.5114 -0.0748 -0.4104
 7498SOL    HW123688   6.430   7.466   6.359 -0.6588  0.3887  0.3350
 7498SOL    HW223689   6.404   7.519   6.219 -1.2147 -0.7719 -0.0075
 7499SOL     OW23690   3.775   5.094   5.516 -0.1236  0.2024  0.1551
 7499SOL    HW123691   3.753   5.183   5.543  0.4674  0.8315 -1.3104
 7499SOL    HW223692   3.767   5.095   5.421  0.1761 -1.2492  0.0830
 7500SOL     OW23693   4.608   3.749   6.621  0.4041  0.0223  0.2493
 7500SOL    HW123694   4.627   3.786   6.707 -1.3598  0.2358  0.5771
 7500SOL    HW223695   4.514   3.732   6.623  0.6721 -1.8380 -0.9210
 7501SOL     OW23696   4.071   6.424   4.994 -0.4060 -0.8340 -0.4947
 7501SOL    HW123697   4.087   6.504   4.944 -0.5918 -0.7307 -0.3934
 7501SOL    HW223698   4.060   6.455   5.084  0.6637 -1.0916 -0.2585
 7502SOL     OW23699   6.798   1.511   7.668 -0.2867  0.3247  0.2898
 7502SOL    HW123700   6.778   1.419   7.651  1.8724  0.0525 -1.3025
 7502SOL    HW223701   6.873   1.530   7.610  0.3632  2.6322  1.7490
 7503SOL     OW23702   7.639   1.963   7.454 -0.4385 -0.2086  0.1780
 7503SOL    HW123703   7.681   2.020   7.518 -0.3866 -1.9706  1.8332
 7503SOL    HW223704   7.711   1.910   7.419 -0.4374  0.8710 -1.5510
 7504SOL     OW23705   4.655   0.206   7.702 -0.2259  0.6904 -0.3591
 7504SOL    HW123706   4.723   0.274   7.704  0.3531  0.1219 -0.0818
 7504SOL    HW223707   4.662   0.162   7.787  0.5342 -0.7670 -1.1261
 7505SOL     OW23708   7.048   1.931   6.273 -0.1123  0.0343  0.2765
 7505SOL    HW123709   7.095   1.979   6.205  0.2845  0.3071  0.7355
 7505SOL    HW223710   7.114   1.877   6.315 -0.6900 -1.5288 -0.7254
 7506SOL     OW23711   1.324   0.938   7.391  0.1722  0.2919  0.0178
 7506SOL    HW123712   1.265   0.885   7.337 -0.3711  0.1967  0.6801
 7506SOL    HW223713   1.367   0.874   7.448  0.9621  0.3574 -0.4952
 7507SOL     OW23714   5.224   6.628   7.547 -0.3380 -0.4531 -0.3024
 7507SOL    HW123715   5.283   6.555   7.567 -0.8391 -0.6074  0.6961
 7507SOL    HW223716   5.282   6.703   7.533  0.1692 -0.9629 -1.0326
 7508SOL     OW23717   0.866   7.559   2.376 -0.2543  0.2336 -0.4301
 7508SOL    HW123718   0.949   7.526   2.412 -0.8074 -0.9018 -0.1466
 7508SOL    HW223719   0.868   7.532   2.284 -0.7995 -0.8272 -0.1481
 7509SOL     OW23720   8.235   7.337   4.982  0.7139  0.1029  0.0954
 7509SOL    HW123721   8.198   7.405   5.039 -1.2052  1.1982 -2.2844
 7509SOL    HW223722   8.319   7.374   4.953 -0.0207  1.2184 -0.6745
 7510SOL     OW23723   5.340   7.573   0.791 -0.5316 -0.1122 -0.3704
 7510SOL    HW123724   5.351   7.647   0.850  3.2074 -0.6254 -0.2005
 7510SOL    HW223725   5.420   7.570   0.739 -0.2909 -4.1507 -0.1452
 7511SOL     OW23726   3.865   4.150   5.820 -0.4903  0.0963 -0.2138
 7511SOL    HW123727   3.914   4.072   5.793 -0.4972  0.7832 -2.3791
 7511SOL    HW223728   3.905   4.176   5.903  1.8630 -0.2081 -1.1844
 7512SOL     OW23729   2.203   8.235   1.875  0.0164 -0.3457  0.0065
 7512SOL    HW123730   2.207   8.325   1.844 -2.4165 -0.8737 -2.1703
 7512SOL    HW223731   2.139   8.237   1.946  0.0237 -0.3552  0.0133
 7513SOL     OW23732   2.520   1.760   2.438  0.0507  0.3554 -0.3123
 7513SOL    HW123733   2.529   1.812   2.358 -2.8912 -0.4250 -1.3074
 7513SOL    HW223734   2.465   1.686   2.412  0.3190 -0.7961  2.0998
 7514SOL     OW23735   0.262   2.744   2.265 -0.0919 -0.0388  0.0593
 7514SOL    HW123736   0.345   2.726   2.309 -0.2033  0.3222  0.4199
 7514SOL    HW223737   0.288   2.783   2.181  0.1214 -0.9057 -0.2890
 7515SOL     OW23738   7.803   1.405   2.495 -0.0459  0.3017  0.3217
 7515SOL    HW123739   7.758   1.459   2.430  4.1551  2.6193 -1.1124
 7515SOL    HW223740   7.852   1.468   2.548  3.2397 -1.8753  0.1925
 7516SOL     OW23741   4.928   1.383   1.970 -0.0634  0.3964  0.2776
 7516SOL    HW123742   5.016   1.347   1.974 -0.8779 -1.7142  0.3169
 7516SOL    HW223743   4.890   1.363   2.056 -0.6184  1.1696  0.2226
 7517SOL     OW23744   3.716   0.878   3.390 -0.0204  0.6328  0.4213
 7517SOL    HW123745   3.786   0.854   3.450  0.5810  0.9043 -0.1589
 7517SOL    HW223746   3.655   0.804   3.393  0.7578 -0.0302  0.2339
 7518SOL     OW23747   3.099   4.530   2.624  0.0810  0.4158  0.0715
 7518SOL    HW123748   3.134   4.441   2.635  3.3482  1.7066  1.3621
 7518SOL    HW223749   3.049   4.546   2.704  1.1408  0.3984  0.7515
 7519SOL     OW23750   5.216   8.038   5.688 -0.1867  0.5968  0.3373
 7519SOL    HW123751   5.216   8.021   5.782  0.9167 -1.2380  0.0656
 7519SOL    HW223752   5.131   8.006   5.657  0.2606 -0.7742  0.4458
 7520SOL     OW23753   0.559   0.413   4.345 -0.5734 -0.3825  0.1328
 7520SOL    HW123754   0.651   0.423   4.321  0.1746 -0.3872  2.7537
 7520SOL    HW223755   0.513   0.413   4.261  1.7350  0.1964 -1.2305
 7521SOL     OW23756   3.104   3.052   1.853 -0.7464  0.0968 -0.4646
 7521SOL    HW123757   3.180   3.106   1.832 -1.9495  2.0847  0.0371
 7521SOL    HW223758   3.038   3.078   1.789 -1.1246 -1.4163 -0.7304
 7522SOL     OW23759   7.329   3.300   5.980 -0.6159  0.3546 -0.3700
 7522SOL    HW123760   7.388   3.321   5.908 -0.9548  0.8774 -0.5016
 7522SOL    HW223761   7.360   3.356   6.052 -1.2253  0.9728 -0.5775
 7523SOL     OW23762   3.012   2.252   7.237 -0.1132 -0.5903  0.1086
 7523SOL    HW123763   3.032   2.176   7.291  1.3268 -0.5864 -0.3834
 7523SOL    HW223764   2.959   2.217   7.165  1.6650 -1.4069 -0.8502
 7524SOL     OW23765   5.696   4.650   6.874 -0.0227 -0.5036  0.0307
 7524SOL    HW123766   5.675   4.683   6.962  0.8919 -0.5775  0.2899
 7524SOL    HW223767   5.615   4.660   6.825 -0.2784  0.4362  0.6156
 7525SOL     OW23768   8.435   8.394   4.674  0.6117  0.0481  0.5258
 7525SOL    HW123769   8.520   8.436   4.681  1.6413 -1.0809 -2.9603
 7525SOL    HW223770   8.446   8.308   4.713  0.9101  0.0847  0.5193
 7526SOL     OW23771   0.123   3.551   4.356  0.4546 -0.3096  0.3403
 7526SOL    HW123772   0.110   3.498   4.277  1.7347 -0.5011  0.2398
 7526SOL    HW223773   0.105   3.490   4.428  0.2225 -0.4036  0.2042
 7527SOL     OW23774   6.163   4.925   5.154 -0.1477 -0.2258 -0.0790
 7527SOL    HW123775   6.099   4.931   5.224  1.4147 -1.9444  1.6269
 7527SOL    HW223776   6.228   4.991   5.175  1.6206 -2.3438  1.6728
 7528SOL     OW23777   5.798   7.257   5.324 -0.2050 -0.0300  0.3740
 7528SOL    HW123778   5.810   7.348   5.299  0.3268  0.2298  1.5102
 7528SOL    HW223779   5.726   7.226   5.269 -1.3327  1.4777  0.9364
 7529SOL     OW23780   4.836   4.791   8.133 -0.0776  0.5241  0.0528
 7529SOL    HW123781   4.858   4.884   8.130 -1.0572  0.8327  1.5294
 7529SOL    HW223782   4.779   4.782   8.209  0.5667 -1.4124  0.3692
 7530SOL     OW23783   0.082   5.559   1.070  0.3044  0.1111  0.3860
 7530SOL    HW123784   0.111   5.468   1.069  0.2162  0.0817  0.5153
 7530SOL    HW223785   0.155   5.608   1.033  0.9698  0.1681  1.7361
 7531SOL     OW23786   5.947   3.437   5.649 -0.2095 -0.0063  0.1447
 7531SOL    HW123787   5.903   3.515   5.681 -0.9646 -0.4371  0.1911
 7531SOL    HW223788   5.983   3.462   5.564 -1.1189  0.1710 -0.1931
 7532SOL     OW23789   1.958   0.820   1.539  0.4629 -0.1502  0.0240
 7532SOL    HW123790   1.871   0.792   1.565 -0.0475  1.2224 -0.1456
 7532SOL    HW223791   2.013   0.802   1.615 -0.6830  2.2732  1.5483
 7533SOL     OW23792   3.819   8.142   6.582 -0.0374  0.1231  0.1852
 7533SOL    HW123793   3.785   8.101   6.661 -1.0679  0.0991 -0.2625
 7533SOL    HW223794   3.781   8.229   6.582 -1.8970 -0.6189 -1.4177
 7534SOL     OW23795   0.868   3.808   0.039  0.0746 -0.1090 -0.2313
 7534SOL    HW123796   0.946   3.863   0.041 -0.2206  0.2891  0.7656
 7534SOL    HW223797   0.809   3.848   0.102 -0.5774 -0.9503 -0.2923
 7535SOL     OW23798   1.708   1.452   1.330  0.3151  0.3242  0.5843
 7535SOL    HW123799   1.749   1.512   1.267  0.9550  0.2431  0.9222
 7535SOL    HW223800   1.636   1.503   1.367 -0.6412  0.0827 -0.8445
 7536SOL     OW23801   0.884   3.269   7.001 -0.0589  0.3705 -0.0784
 7536SOL    HW123802   0.882   3.349   6.950  1.2833  0.0456 -0.6872
 7536SOL    HW223803   0.932   3.292   7.081 -2.0002  0.8328  1.0269
 7537SOL     OW23804   1.928   0.325   1.536  0.0155  0.4158 -1.0083
 7537SOL    HW123805   1.926   0.378   1.456 -0.1349  0.0934 -1.2169
 7537SOL    HW223806   1.968   0.383   1.601 -0.4780  0.9181 -1.1440
 7538SOL     OW23807   7.561   5.251   3.976  0.1092 -0.3792  0.6506
 7538SOL    HW123808   7.480   5.292   4.005  0.2293 -0.2971  0.8724
 7538SOL    HW223809   7.566   5.170   4.027 -0.4802 -1.0271 -0.2831
 7539SOL     OW23810   0.599   5.120   4.018  0.2642 -0.8224 -0.1430
 7539SOL    HW123811   0.678   5.171   4.000  0.3845 -1.5609 -1.8327
 7539SOL    HW223812   0.615   5.083   4.105  1.0121  0.4242  0.2806
 7540SOL     OW23813   5.379   5.508   5.684  0.5204  0.9424 -0.7460
 7540SOL    HW123814   5.381   5.413   5.675 -0.9852  0.9738 -1.7916
 7540SOL    HW223815   5.354   5.540   5.597 -1.2804  2.1423  0.1460
 7541SOL     OW23816   8.389   2.026   8.591  0.3092 -0.0488  0.1099
 7541SOL    HW123817   8.295   2.036   8.576  0.1434  0.3851  1.3460
 7541SOL    HW223818   8.410   2.093   8.656  1.2605 -0.8780  0.6738
 7542SOL     OW23819   6.709   0.831   0.900  0.4756  0.3459  0.9034
 7542SOL    HW123820   6.620   0.862   0.911  0.7643  0.8349  1.9470
 7542SOL    HW223821   6.716   0.811   0.806 -0.2529  1.7495  0.5305
 7543SOL     OW23822   6.205   1.213   8.226  0.0069  0.4873 -1.0220
 7543SOL    HW123823   6.155   1.241   8.149 -0.6374  1.7755 -0.1655
 7543SOL    HW223824   6.163   1.257   8.300  0.2116 -1.2272  0.1720
 7544SOL     OW23825   1.234   4.937   7.364  0.1324  0.2296  0.2035
 7544SOL    HW123826   1.222   4.890   7.447  1.2757 -0.9646 -0.2672
 7544SOL    HW223827   1.328   4.931   7.347 -0.1703 -0.1768 -1.5295
 7545SOL     OW23828   6.191   6.144   0.041 -0.2787 -0.4495 -0.5465
 7545SOL    HW123829   6.271   6.173   0.085 -1.1699 -1.0013  1.5423
 7545SOL    HW223830   6.195   6.185  -0.045  2.3240 -0.5906 -0.5774
 7546SOL     OW23831   7.479   7.944   4.518  0.1289 -0.6348  0.2092
 7546SOL    HW123832   7.531   8.016   4.482  0.7286 -0.8962  0.5396
 7546SOL    HW223833   7.394   7.952   4.475 -1.1278  2.5220  2.9073
 7547SOL     OW23834   4.693   0.738   5.966 -0.0184 -0.0215 -0.5863
 7547SOL    HW123835   4.625   0.697   5.913  0.0271 -1.0003  0.0717
 7547SOL    HW223836   4.741   0.664   6.005 -0.8870  0.6113  1.8729
 7548SOL     OW23837   3.651   6.223   1.846 -0.0255 -0.1256 -0.3506
 7548SOL    HW123838   3.712   6.194   1.778  0.7751 -0.4663  0.4887
 7548SOL    HW223839   3.565   6.203   1.811  0.3497  0.0893 -1.4407
 7549SOL     OW23840   0.212   8.516   6.010  0.4556  0.1318 -0.2554
 7549SOL    HW123841   0.177   8.551   5.928 -1.5051 -2.7160 -0.7800
 7549SOL    HW223842   0.292   8.471   5.984  0.9213  0.9023 -0.2092
 7550SOL     OW23843   8.493   0.238   8.270 -0.3832 -0.0460 -0.5698
 7550SOL    HW123844   8.450   0.220   8.186 -1.1033  0.8239 -0.4113
 7550SOL    HW223845   8.423   0.228   8.335  0.0050 -0.0230 -0.1420
 7551SOL     OW23846   0.024   1.528   6.130  0.0851 -0.0031  0.3695
 7551SOL    HW123847   0.049   1.541   6.039 -1.9848  2.2794  0.0115
 7551SOL    HW223848  -0.056   1.475   6.125  0.7348 -1.0652  0.9744
 7552SOL     OW23849   2.949   0.263   3.276  0.1502 -0.2590  0.0942
 7552SOL    HW123850   2.961   0.311   3.358  1.8097  0.3338 -0.4454
 7552SOL    HW223851   3.014   0.193   3.280  0.1424 -0.3136 -0.6353
 7553SOL     OW23852   1.448   6.190   3.856  0.4208 -0.1145 -0.1572
 7553SOL    HW123853   1.491   6.275   3.860  1.4286 -0.5129 -1.6394
 7553SOL    HW223854   1.512   6.133   3.812 -0.0927 -1.7249  1.0829
 7554SOL     OW23855   5.095   8.498   2.037  0.0070  0.1462  0.0300
 7554SOL    HW123856   5.139   8.444   2.103 -2.3336 -0.5357  1.1620
 7554SOL    HW223857   5.030   8.440   1.998 -0.8593  1.4477 -0.5482
 7555SOL     OW23858   1.099   2.165   1.509 -0.1421  0.2160 -0.1251
 7555SOL    HW123859   1.129   2.147   1.598  1.0858 -0.9253 -0.7332
 7555SOL    HW223860   1.006   2.183   1.518  0.0956  0.8332  1.4693
 7556SOL     OW23861   7.082   2.099   1.488  0.4126  0.1962 -0.6306
 7556SOL    HW123862   7.073   2.192   1.508 -0.3728  0.0197 -0.1411
 7556SOL    HW223863   7.173   2.079   1.509 -0.4804 -0.1704  3.7676
 7557SOL     OW23864   3.118   1.025   8.295 -0.3052  0.4066 -0.1133
 7557SOL    HW123865   3.080   1.051   8.379 -0.6583 -1.4751  0.3693
 7557SOL    HW223866   3.083   1.087   8.232 -3.4118 -0.5592  0.4747
 7558SOL     OW23867   5.765   2.829   1.835  0.2415  0.3902  0.6911
 7558SOL    HW123868   5.805   2.753   1.794 -2.1891 -0.4085 -0.3889
 7558SOL    HW223869   5.807   2.836   1.920  2.0134 -0.8458 -0.0349
 7559SOL     OW23870   2.167   1.244   0.019  0.2039  0.4490 -0.1199
 7559SOL    HW123871   2.159   1.333   0.053  0.5178  0.5370 -0.2805
 7559SOL    HW223872   2.171   1.189   0.098 -0.0618  0.5677 -0.0211
 7560SOL     OW23873   8.364   1.328   1.282  0.2649  0.0070  0.5269
 7560SOL    HW123874   8.354   1.322   1.377 -1.4418 -1.6162  0.2997
 7560SOL    HW223875   8.275   1.321   1.248  0.8627  0.4536 -1.1987
 7561SOL     OW23876   2.054   7.726   2.911 -0.4322  0.1365 -0.6261
 7561SOL    HW123877   1.993   7.668   2.866 -1.3877 -0.8170  1.7437
 7561SOL    HW223878   1.998   7.788   2.958  0.4427  0.0834  0.5319
 7562SOL     OW23879   1.700   6.451   6.277 -0.2939 -0.3231  0.3536
 7562SOL    HW123880   1.675   6.535   6.239  2.0024 -1.3021 -3.8253
 7562SOL    HW223881   1.632   6.390   6.248  0.6106 -0.7829 -0.8314
 7563SOL     OW23882   8.211   1.568   5.501  0.0851 -0.0450 -0.2644
 7563SOL    HW123883   8.126   1.596   5.536 -0.4697 -0.7549 -0.9980
 7563SOL    HW223884   8.223   1.480   5.537  0.0900 -0.2959 -0.8790
 7564SOL     OW23885   7.861   4.612   6.588 -0.2098  0.3872 -0.3221
 7564SOL    HW123886   7.783   4.611   6.644 -0.5834 -0.7663 -0.8379
 7564SOL    HW223887   7.934   4.609   6.649 -0.6192 -1.1920  0.1277
 7565SOL     OW23888   2.761   4.094   4.313  0.3936  0.0433  0.0804
 7565SOL    HW123889   2.748   4.170   4.256  0.4384  0.7283  0.9545
 7565SOL    HW223890   2.852   4.102   4.342  0.3397 -0.2436  0.3253
 7566SOL     OW23891   2.117   3.252   2.526 -0.2535  0.4296  0.5752
 7566SOL    HW123892   2.063   3.174   2.519  1.5969 -0.9410  0.9254
 7566SOL    HW223893   2.066   3.312   2.582 -1.0110 -1.1706  1.6679
 7567SOL     OW23894   5.138   3.791   3.128  0.4525 -1.0258  0.1609
 7567SOL    HW123895   5.162   3.820   3.216  0.5510 -1.1494  0.1732
 7567SOL    HW223896   5.220   3.789   3.079  0.4126 -1.0570  0.0945
 7568SOL     OW23897   4.740   7.344   4.056  0.2408  0.7355 -0.0517
 7568SOL    HW123898   4.803   7.365   4.124 -0.9153 -0.3890  1.4386
 7568SOL    HW223899   4.703   7.260   4.082 -0.1998  0.2154 -2.1312
 7569SOL     OW23900   0.549   4.885   5.254 -0.6329  0.3042  0.2974
 7569SOL    HW123901   0.531   4.975   5.226  2.4008  0.6686 -0.7858
 7569SOL    HW223902   0.509   4.879   5.341 -2.9302  1.8898 -0.5707
 7570SOL     OW23903   6.939   1.709   2.422 -0.0971  0.0280  0.3167
 7570SOL    HW123904   6.871   1.760   2.467 -0.4613 -1.4594  1.5328
 7570SOL    HW223905   6.906   1.698   2.333 -1.0098  0.1196  0.6298
 7571SOL     OW23906   1.370   6.062   3.075  0.0659  0.1405  0.3902
 7571SOL    HW123907   1.412   6.146   3.056 -1.0258  0.5038 -0.5096
 7571SOL    HW223908   1.328   6.074   3.160  0.1467  0.4053  0.3923
 7572SOL     OW23909   4.735   5.749   0.648 -0.4997 -0.1834 -0.1108
 7572SOL    HW123910   4.798   5.799   0.700 -1.5086  0.3889  0.5948
 7572SOL    HW223911   4.650   5.770   0.686 -0.9557 -2.9058  0.5904
 7573SOL     OW23912   7.202   5.433   5.645  0.0439 -0.1374 -0.2477
 7573SOL    HW123913   7.176   5.441   5.553 -0.0781  1.4199 -0.1022
 7573SOL    HW223914   7.151   5.358   5.677  0.7644 -1.2864 -1.6485
 7574SOL     OW23915   4.627   5.903   7.159  0.4501 -0.3384  0.1049
 7574SOL    HW123916   4.582   5.878   7.239 -0.6132  0.1842 -0.3071
 7574SOL    HW223917   4.690   5.970   7.187  1.1273 -1.2135  0.7155
 7575SOL     OW23918   3.903   4.803   5.187  0.5815 -0.3200 -0.6381
 7575SOL    HW123919   3.813   4.833   5.172  0.5179 -1.0536 -1.8785
 7575SOL    HW223920   3.895   4.728   5.246  0.1920 -1.4320 -2.0492
 7576SOL     OW23921   4.725   5.823   0.228 -0.3013  0.6410  0.1990
 7576SOL    HW123922   4.648   5.879   0.235 -0.2328  0.6804  0.6560
 7576SOL    HW223923   4.746   5.798   0.318  1.3654  2.1619  0.2943
 7577SOL     OW23924   4.269   7.152   0.486  0.0585  0.0328 -0.5958
 7577SOL    HW123925   4.347   7.096   0.476  0.5101  0.2801  1.2688
 7577SOL    HW223926   4.217   7.134   0.408 -0.1364 -3.4790  0.2238
 7578SOL     OW23927   4.288   8.194   4.994  0.0257 -0.4618  0.2949
 7578SOL    HW123928   4.343   8.127   5.034 -0.7065 -1.8896 -0.9806
 7578SOL    HW223929   4.224   8.216   5.062  0.7543 -0.4475  0.9986
 7579SOL     OW23930   1.766   7.584   6.590  0.6695  0.1831  0.2429
 7579SOL    HW123931   1.804   7.569   6.677  2.7869 -0.4313 -0.7259
 7579SOL    HW223932   1.676   7.611   6.608  0.9989 -0.0589  2.6165
 7580SOL     OW23933   5.087   4.578   0.773  0.0787  0.2048  0.3481
 7580SOL    HW123934   5.057   4.494   0.807  0.4165 -0.1755 -0.2845
 7580SOL    HW223935   5.006   4.626   0.755 -0.1377  0.9498  2.8986
 7581SOL     OW23936   6.990   1.370   3.080  0.2366  0.1716  0.3516
 7581SOL    HW123937   6.959   1.313   3.010  0.1635  1.6739 -0.8804
 7581SOL    HW223938   7.085   1.364   3.075  0.2306 -0.4135  0.7430
 7582SOL     OW23939   8.415   2.150   6.988 -0.2059  0.1212  0.1634
 7582SOL    HW123940   8.483   2.123   6.927 -0.7395  0.5942 -0.6628
 7582SOL    HW223941   8.441   2.112   7.072  0.9934  0.1841 -0.1680
 7583SOL     OW23942   0.464   5.598   7.825  0.2249  0.1095 -0.0588
 7583SOL    HW123943   0.499   5.687   7.835  0.2699  0.0045  0.7414
 7583SOL    HW223944   0.447   5.590   7.731 -0.4214  1.2020 -0.0531
 7584SOL     OW23945   6.737   5.493   7.148  0.6604 -0.4624  0.5028
 7584SOL    HW123946   6.797   5.431   7.188 -1.4570 -1.9054  1.6538
 7584SOL    HW223947   6.686   5.441   7.086 -0.4760  0.3141  0.7418
 7585SOL     OW23948   3.226   2.366   6.715  0.1353 -0.3785 -0.1134
 7585SOL    HW123949   3.308   2.351   6.762  0.2673  1.2323  0.2346
 7585SOL    HW223950   3.240   2.328   6.628  0.4138 -2.0934  0.6314
 7586SOL     OW23951   4.346   3.612   7.456  0.5333  0.0669  0.3671
 7586SOL    HW123952   4.339   3.663   7.536  3.2345  1.8802 -0.4241
 7586SOL    HW223953   4.369   3.524   7.485  0.4582  0.4372  1.6154
 7587SOL     OW23954   7.935   1.808   8.270 -0.0616 -0.3413 -0.1312
 7587SOL    HW123955   7.994   1.778   8.339 -0.3789 -0.7884 -0.0511
 7587SOL    HW223956   7.847   1.791   8.304 -0.2320  0.0119 -0.3875
 7588SOL     OW23957   2.943   4.811   6.697  0.3300 -0.1961 -0.2665
 7588SOL    HW123958   3.016   4.868   6.721 -1.2358  0.8335  2.4946
 7588SOL    HW223959   2.893   4.862   6.633  0.2519  0.5419  0.3615
 7589SOL     OW23960   2.787   6.656   0.144  0.6239  0.0191  0.0935
 7589SOL    HW123961   2.865   6.641   0.091 -0.0150 -1.8265 -0.3859
 7589SOL    HW223962   2.796   6.597   0.218 -0.4550 -0.4901 -0.1523
 7590SOL     OW23963   1.652   8.087   5.911  0.2305  0.0792 -0.3202
 7590SOL    HW123964   1.560   8.075   5.933  0.2774 -0.1868 -0.2726
 7590SOL    HW223965   1.674   8.014   5.854 -0.2354  1.4463 -2.3691
 7591SOL     OW23966   4.975   0.176   0.504  0.3596  0.0603 -0.5040
 7591SOL    HW123967   4.997   0.123   0.580 -1.2916 -0.5045 -0.3821
 7591SOL    HW223968   4.997   0.120   0.429 -2.1955 -1.2797 -0.3806
 7592SOL     OW23969   0.311   6.242   5.195 -0.1666  0.3188  0.2168
 7592SOL    HW123970   0.231   6.250   5.247 -0.2781  3.4876 -0.2741
 7592SOL    HW223971   0.382   6.255   5.258 -0.0843 -0.7756  0.3627
 7593SOL     OW23972   6.866   4.715   7.610  0.0058 -0.6814 -0.2210
 7593SOL    HW123973   6.924   4.750   7.677 -2.4849 -0.7021  2.1083
 7593SOL    HW223974   6.885   4.768   7.532  1.1299  1.2095  1.2442
 7594SOL     OW23975   0.591   2.297   0.887  0.1829 -0.3200 -0.2287
 7594SOL    HW123976   0.557   2.231   0.827 -2.3863  0.7029 -0.0335
 7594SOL    HW223977   0.636   2.360   0.830 -0.1401 -0.5949 -0.7975
 7595SOL     OW23978   0.986   2.374   7.570 -0.2320  0.6712  0.1548
 7595SOL    HW123979   0.958   2.463   7.548  1.3757  1.6821  1.8419
 7595SOL    HW223980   0.991   2.375   7.666 -0.5956 -1.3997  0.2272
 7596SOL     OW23981   3.596   2.924   4.575 -0.1292 -0.1710  0.2438
 7596SOL    HW123982   3.548   2.843   4.559  1.6103 -0.9474 -1.5259
 7596SOL    HW223983   3.560   2.985   4.510  1.8776 -1.0912 -1.8794
 7597SOL     OW23984   6.364   3.998   3.015 -0.8322 -0.2934 -0.0305
 7597SOL    HW123985   6.386   3.983   2.923 -2.4824  2.8519 -1.0983
 7597SOL    HW223986   6.283   3.948   3.028  0.2979 -2.1232  0.3038
 7598SOL     OW23987   7.195   3.853   4.710  0.2510  0.7079 -0.0389
 7598SOL    HW123988   7.235   3.821   4.791 -1.9900 -0.5163  0.6751
 7598SOL    HW223989   7.189   3.776   4.654 -0.2540  1.0625 -0.4857
 7599SOL     OW23990   3.050   1.250   7.164  0.5334  0.4418 -0.3049
 7599SOL    HW123991   3.041   1.219   7.074  0.7256  1.1525 -0.5726
 7599SOL    HW223992   3.116   1.193   7.203  1.5198  1.0573 -1.0460
 7600SOL     OW23993   7.153   0.640   6.199 -0.5087  0.3053 -0.2130
 7600SOL    HW123994   7.068   0.627   6.242  0.2432  0.3757  1.3978
 7600SOL    HW223995   7.137   0.619   6.107 -2.3573  0.7121 -0.0362
 7601SOL     OW23996   2.160   1.579   7.890 -0.5087  0.3805  0.3764
 7601SOL    HW123997   2.194   1.566   7.978 -0.2056  0.7535  0.3155
 7601SOL    HW223998   2.114   1.663   7.893  0.5549  0.9952 -0.1293
 7602SOL     OW23999   7.326   8.042   4.993 -0.0058 -0.2894 -0.2902
 7602SOL    HW124000   7.253   8.087   5.035 -0.6261 -2.6113  1.2736
 7602SOL    HW224001   7.285   7.982   4.930  0.5909 -1.0733  0.0588
 7603SOL     OW24002   5.348   0.691   4.924  0.4715  0.2892 -0.5481
 7603SOL    HW124003   5.343   0.595   4.928  1.9129  0.1129 -1.9321
 7603SOL    HW224004   5.408   0.715   4.994 -0.8956  0.3373  0.6582
 7604SOL     OW24005   8.328   3.270   3.958  0.2786 -0.2064 -0.1715
 7604SOL    HW124006   8.376   3.191   3.980  0.4544 -0.2656 -0.7433
 7604SOL    HW224007   8.252   3.270   4.016  0.3644 -0.7082 -0.0600
 7605SOL     OW24008   5.172   2.463   2.869  0.4288  0.1779 -0.3415
 7605SOL    HW124009   5.202   2.524   2.801  0.9784  1.0061  0.6156
 7605SOL    HW224010   5.094   2.423   2.832  0.0894  1.4122 -1.0362
 7606SOL     OW24011   5.687   3.687   1.904  0.4238 -0.3293 -0.0386
 7606SOL    HW124012   5.744   3.710   1.831  0.4679 -1.7179 -0.4817
 7606SOL    HW224013   5.603   3.665   1.863  0.3050 -0.6492  0.3640
 7607SOL     OW24014   4.928   0.944   0.473 -0.4627 -0.2208  0.1742
 7607SOL    HW124015   4.903   0.864   0.519  1.7774 -1.0564  0.0827
 7607SOL    HW224016   4.967   0.999   0.540  0.6601 -0.4586 -0.2600
 7608SOL     OW24017   1.940   2.419   4.227  0.1503  0.5135 -0.5734
 7608SOL    HW124018   2.033   2.444   4.224  0.7718 -1.2225  1.3865
 7608SOL    HW224019   1.937   2.336   4.179  0.0233 -0.4237  1.0145
 7609SOL     OW24020   5.835   4.069   3.275 -0.1282  0.0580  0.4962
 7609SOL    HW124021   5.824   4.001   3.342 -1.8285 -0.7002 -0.4886
 7609SOL    HW224022   5.840   4.151   3.324  0.7893 -0.6533  1.6437
 7610SOL     OW24023   5.130   0.802   3.183 -0.5956 -0.2059 -0.2292
 7610SOL    HW124024   5.165   0.856   3.112 -2.7062  0.7390 -0.6507
 7610SOL    HW224025   5.110   0.865   3.253 -3.0864 -0.3302 -0.7194
 7611SOL     OW24026   4.173   1.576   8.453 -0.4986 -0.2242  1.0518
 7611SOL    HW124027   4.113   1.642   8.418 -0.6665 -1.1255 -0.4193
 7611SOL    HW224028   4.249   1.580   8.395 -1.1120 -2.3018  0.0047
 7612SOL     OW24029   5.782   5.452   0.702  0.2740  0.1929 -0.3986
 7612SOL    HW124030   5.785   5.428   0.609 -1.2431 -1.1796 -0.1475
 7612SOL    HW224031   5.771   5.369   0.748  1.2493  0.8276  1.0519
 7613SOL     OW24032   7.296   0.439   4.787 -0.2609 -0.0198 -0.2169
 7613SOL    HW124033   7.224   0.391   4.829  0.1344  0.7362  1.3769
 7613SOL    HW224034   7.272   0.439   4.694 -1.4683 -1.2257  0.0470
 7614SOL     OW24035   0.733   2.182   2.429  0.0638  0.6743 -0.1359
 7614SOL    HW124036   0.714   2.132   2.350  1.6737  0.2272 -0.2881
 7614SOL    HW224037   0.694   2.131   2.500  0.8440 -0.3321 -0.3980
 7615SOL     OW24038   5.644   1.099   0.965 -0.1416 -0.7220 -0.2641
 7615SOL    HW124039   5.702   1.023   0.969  2.0798  0.8114 -0.8955
 7615SOL    HW224040   5.699   1.168   0.928 -1.6421  1.5538  1.4873
 7616SOL     OW24041   5.235   0.985   2.980  0.3358  0.1888 -0.7453
 7616SOL    HW124042   5.293   1.058   2.957 -0.7293  2.4695  2.9145
 7616SOL    HW224043   5.149   1.011   2.947  0.3684 -0.5451 -1.4233
 7617SOL     OW24044   4.194   0.654   0.650 -0.3147 -0.2726 -0.0363
 7617SOL    HW124045   4.257   0.590   0.684  0.0507  0.6116  1.0162
 7617SOL    HW224046   4.240   0.737   0.654 -1.5038  0.3790  0.6248
 7618SOL     OW24047   4.241   2.405   0.255 -0.3448 -0.3767  0.1008
 7618SOL    HW124048   4.262   2.481   0.201 -0.4824 -0.8477 -0.6283
 7618SOL    HW224049   4.325   2.375   0.290 -0.3801  0.6107  1.0893
 7619SOL     OW24050   2.867   3.798   4.637 -0.3224 -0.3785 -0.1682
 7619SOL    HW124051   2.812   3.811   4.560 -1.8101 -0.9740  0.7464
 7619SOL    HW224052   2.854   3.877   4.689  1.9186  0.7389 -1.2083
 7620SOL     OW24053   6.374   5.965   6.315  0.5474 -0.9445  0.1073
 7620SOL    HW124054   6.321   5.925   6.385 -0.0811 -1.1534 -0.4729
 7620SOL    HW224055   6.330   5.939   6.234 -0.3708  1.5637 -0.2827
 7621SOL     OW24056   5.149   6.594   1.517  0.1156 -0.1166  0.1835
 7621SOL    HW124057   5.070   6.640   1.542  0.2759  0.3739 -0.2100
 7621SOL    HW224058   5.215   6.662   1.507 -0.0053 -0.2357 -1.8605
 7622SOL     OW24059   3.353   7.079   0.228  0.3239  0.5886  0.3333
 7622SOL    HW124060   3.438   7.064   0.186  1.6483  2.6106  2.0854
 7622SOL    HW224061   3.332   7.171   0.208 -1.1211  0.3242  0.5050
 7623SOL     OW24062   7.498   5.815   7.325  0.2010  0.4970 -0.0261
 7623SOL    HW124063   7.550   5.749   7.279  2.0824  1.6192  0.3999
 7623SOL    HW224064   7.539   5.898   7.302 -1.9410  1.5442 -0.3327
 7624SOL     OW24065   1.094   8.337   2.769  0.3321 -0.6294 -0.4833
 7624SOL    HW124066   1.076   8.358   2.678  1.0984  0.6907 -0.3417
 7624SOL    HW224067   1.105   8.421   2.812  1.1490 -1.2594  0.5972
 7625SOL     OW24068   0.930   4.514   0.795  0.0527 -0.3375  0.2425
 7625SOL    HW124069   0.850   4.540   0.751  1.0919  1.8087 -0.4843
 7625SOL    HW224070   0.902   4.492   0.884 -1.2075  1.4494  0.3358
 7626SOL     OW24071   4.792   8.576   2.681  0.2966  0.2510 -0.0605
 7626SOL    HW124072   4.865   8.624   2.719  1.4938 -0.1117 -1.7610
 7626SOL    HW224073   4.825   8.487   2.669 -0.4487  0.0545 -0.7719
 7627SOL     OW24074   1.802   7.184   4.137 -0.3965 -0.5398 -0.2456
 7627SOL    HW124075   1.850   7.176   4.054  1.1418 -2.3367  0.7452
 7627SOL    HW224076   1.759   7.270   4.131 -0.6802 -0.7614 -3.0483
 7628SOL     OW24077   1.962   1.626   0.512  0.0952 -0.0176 -0.2678
 7628SOL    HW124078   2.019   1.662   0.445 -1.6525 -0.0281 -1.8513
 7628SOL    HW224079   1.977   1.532   0.508  1.5294  0.1337  0.8749
 7629SOL     OW24080   7.635   2.870   6.498  0.1212  0.2458  0.0074
 7629SOL    HW124081   7.706   2.899   6.555  0.1605 -2.9565  1.7830
 7629SOL    HW224082   7.582   2.949   6.485  1.7665  1.7979  1.9604
 7630SOL     OW24083   6.799   1.830   0.746 -0.0015  0.1385 -0.1452
 7630SOL    HW124084   6.857   1.854   0.818  0.9357 -0.4476 -0.6799
 7630SOL    HW224085   6.711   1.841   0.781  0.4008  1.7595  0.4616
 7631SOL     OW24086   6.180   6.180   8.034 -0.1496 -0.1782  0.2477
 7631SOL    HW124087   6.236   6.217   8.103 -1.3559  0.7620  0.7623
 7631SOL    HW224088   6.241   6.146   7.969  1.0396  1.6387  0.3320
 7632SOL     OW24089   5.451   3.511   3.060  0.3667 -0.5676 -0.4006
 7632SOL    HW124090   5.484   3.504   2.971 -3.3603 -0.9202 -1.9189
 7632SOL    HW224091   5.356   3.508   3.052 -0.2434  0.9271  3.4716
 7633SOL     OW24092   4.827   3.972   0.050  0.5710 -0.7391 -0.0694
 7633SOL    HW124093   4.916   3.963   0.016 -0.0010 -0.8909 -1.6045
 7633SOL    HW224094   4.822   3.911   0.123  2.1729  0.3690  1.0328
 7634SOL     OW24095   4.986   5.860   7.863  0.0659  0.2739 -0.2206
 7634SOL    HW124096   4.924   5.806   7.911  1.5075 -1.2496  0.0138
 7634SOL    HW224097   4.981   5.946   7.906 -1.2003 -0.0583  0.3502
 7635SOL     OW24098   8.168   6.815   2.008  0.2718 -0.2182  0.1522
 7635SOL    HW124099   8.162   6.904   2.043 -3.1101 -0.1034 -0.3408
 7635SOL    HW224100   8.086   6.773   2.036  0.3214 -2.1498 -2.2748
 7636SOL     OW24101   4.622   7.540   2.343  0.3400 -0.0021  0.0660
 7636SOL    HW124102   4.551   7.542   2.407 -0.7626  0.1008 -1.1069
 7636SOL    HW224103   4.700   7.567   2.392 -0.1009 -1.5871  1.7523
 7637SOL     OW24104   3.347   2.148   3.563 -0.3987  0.1482  0.3796
 7637SOL    HW124105   3.361   2.222   3.503  1.6074 -0.1666  0.4011
 7637SOL    HW224106   3.322   2.076   3.506 -1.1430  0.5113  0.2282
 7638SOL     OW24107   6.816   2.986   5.826 -0.6666  0.2613  0.9386
 7638SOL    HW124108   6.836   2.900   5.789  0.4133  1.5414 -1.7057
 7638SOL    HW224109   6.887   3.002   5.889  0.9139  0.4506 -0.8268
 7639SOL     OW24110   2.030   5.541   1.544  0.3659 -0.1273  0.2421
 7639SOL    HW124111   2.060   5.458   1.581 -1.6385 -0.8388  0.3746
 7639SOL    HW224112   1.967   5.516   1.477 -0.3386  1.2992  0.3372
 7640SOL     OW24113   3.187   3.155   6.762  0.1996 -0.2531 -0.1380
 7640SOL    HW124114   3.165   3.237   6.805  2.6104  2.0446 -2.8535
 7640SOL    HW224115   3.238   3.107   6.827 -3.2715 -0.8957  2.3727
 7641SOL     OW24116   3.358   6.949   0.502 -0.5440  0.3747 -0.0960
 7641SOL    HW124117   3.316   6.987   0.425  0.2873 -0.3495 -0.9250
 7641SOL    HW224118   3.348   7.016   0.570 -0.1787  1.5663 -1.1738
 7642SOL     OW24119   7.507   0.128   4.598 -0.2004  0.2562  0.4499
 7642SOL    HW124120   7.448   0.121   4.673 -0.2584 -0.9970  0.2974
 7642SOL    HW224121   7.467   0.195   4.543 -0.1485  1.2153  1.5207
 7643SOL     OW24122   4.953   6.132   6.065  0.0025 -0.1822  0.2039
 7643SOL    HW124123   4.923   6.047   6.030 -0.9209 -0.1748  0.9459
 7643SOL    HW224124   4.898   6.196   6.020  1.3255  0.1142 -1.0445
 7644SOL     OW24125   7.748   1.191   2.938 -0.3576  0.0352  0.2315
 7644SOL    HW124126   7.793   1.232   2.865 -2.2591  0.0919 -0.9892
 7644SOL    HW224127   7.756   1.097   2.921  2.8308 -0.1948  2.3015
 7645SOL     OW24128   3.194   7.369   7.849  0.2517  0.0341  0.2726
 7645SOL    HW124129   3.174   7.423   7.772 -2.9420 -0.9541  0.2391
 7645SOL    HW224130   3.167   7.281   7.824 -0.7438 -0.3460  2.4263
 7646SOL     OW24131   8.181   2.862   6.842 -0.1938  0.1152  0.5079
 7646SOL    HW124132   8.246   2.797   6.816  0.1624  0.1248  1.3209
 7646SOL    HW224133   8.231   2.928   6.891 -0.7836  0.2287  0.9749
 7647SOL     OW24134   1.217   5.202   2.252  0.2532 -0.6398 -0.0292
 7647SOL    HW124135   1.242   5.127   2.306 -1.4307  0.0063  1.7282
 7647SOL    HW224136   1.121   5.200   2.251  0.1895 -0.4364 -2.7926
 7648SOL     OW24137   8.035   2.174   2.598 -0.3199  0.5452 -0.7164
 7648SOL    HW124138   7.966   2.134   2.650  0.9923 -0.1317  0.5522
 7648SOL    HW224139   8.041   2.119   2.520  0.7528 -1.2050  0.5239
 7649SOL     OW24140   6.890   6.126   6.373  0.0675 -0.0507  0.0035
 7649SOL    HW124141   6.951   6.084   6.313  2.1660  2.7511 -0.0129
 7649SOL    HW224142   6.936   6.204   6.404 -2.7069  1.0681  1.7070
 7650SOL     OW24143   7.685   3.271   3.547 -0.1174 -0.3209 -0.0267
 7650SOL    HW124144   7.686   3.178   3.568 -0.8260  0.2400  2.8730
 7650SOL    HW224145   7.757   3.308   3.598 -0.4308  0.8718 -0.4142
 7651SOL     OW24146   0.797   5.717   1.413 -0.0352  0.0014  0.2760
 7651SOL    HW124147   0.849   5.761   1.480  0.1689  0.7090 -0.3321
 7651SOL    HW224148   0.820   5.762   1.331 -2.3070  0.9562  0.1077
 7652SOL     OW24149   0.436   5.195   1.938  0.2369  0.3246  0.5390
 7652SOL    HW124150   0.491   5.250   1.994 -0.4942  2.4745 -0.7200
 7652SOL    HW224151   0.497   5.155   1.876  0.6976  0.4622  0.8993
 7653SOL     OW24152   5.295   3.728   3.912 -0.1207  0.1560 -0.2973
 7653SOL    HW124153   5.361   3.749   3.846 -0.5672  0.6692 -0.5904
 7653SOL    HW224154   5.254   3.812   3.933 -0.7648 -0.1721 -0.2194
 7654SOL     OW24155   4.972   5.607   1.775  0.5171  0.3325  0.0762
 7654SOL    HW124156   4.949   5.644   1.860 -1.4711  2.0184 -1.0748
 7654SOL    HW224157   4.888   5.593   1.732  1.3056 -3.1517 -0.6527
 7655SOL     OW24158   6.211   0.865   5.513 -0.2928  0.0691  0.1876
 7655SOL    HW124159   6.204   0.793   5.450  0.8809  1.0604 -1.1539
 7655SOL    HW224160   6.125   0.907   5.512 -0.1453  0.3828 -1.1914
 7656SOL     OW24161   2.254   4.791   6.677 -0.2280 -0.2952 -0.7467
 7656SOL    HW124162   2.253   4.885   6.661  0.5523  0.3279  2.2432
 7656SOL    HW224163   2.345   4.771   6.698 -0.7405 -1.2514  0.7751
 7657SOL     OW24164   3.203   0.784   2.857  0.6733  0.5631 -0.0600
 7657SOL    HW124165   3.136   0.750   2.916  1.2317 -1.2553 -0.4337
 7657SOL    HW224166   3.175   0.756   2.770  0.2813  2.5331 -0.6192
 7658SOL     OW24167   5.568   3.575   0.077 -0.1036  0.2086  0.5852
 7658SOL    HW124168   5.566   3.561   0.172 -1.6799 -1.0790  0.4075
 7658SOL    HW224169   5.625   3.506   0.044 -3.0109 -2.2263  0.2703
 7659SOL     OW24170   1.505   0.924   0.523  0.1937 -0.3681  0.2829
 7659SOL    HW124171   1.547   0.886   0.445  1.4476 -0.0728  0.7817
 7659SOL    HW224172   1.532   0.867   0.595 -1.5250 -1.0384  0.4279
 7660SOL     OW24173   6.539   6.158   7.231  0.4727 -0.4535  0.0709
 7660SOL    HW124174   6.619   6.149   7.283  1.2726 -1.3834 -1.2422
 7660SOL    HW224175   6.553   6.101   7.156 -1.3208 -0.4000 -0.3504
 7661SOL     OW24176   6.945   1.374   3.733 -0.2356 -0.8790  0.2867
 7661SOL    HW124177   7.036   1.354   3.757 -0.1738 -0.8515  0.0825
 7661SOL    HW224178   6.950   1.462   3.695 -0.2104 -1.2167 -0.5087
 7662SOL     OW24179   0.220   5.845   1.578  0.0522  0.3430  0.3849
 7662SOL    HW124180   0.210   5.935   1.546  1.5389  0.1961 -0.6089
 7662SOL    HW224181   0.130   5.810   1.579 -0.4729  1.6191  0.1449
 7663SOL     OW24182   1.985   4.927   8.377 -0.1828 -0.4655 -0.2566
 7663SOL    HW124183   1.987   4.831   8.373 -0.2983 -0.6034  1.7024
 7663SOL    HW224184   2.055   4.955   8.318  0.4149 -1.7915 -0.2183
 7664SOL     OW24185   4.665   4.919   6.877  0.0170  0.5231  0.3282
 7664SOL    HW124186   4.702   4.945   6.961  1.7857 -1.3825  0.2234
 7664SOL    HW224187   4.686   4.991   6.818  1.6676  0.4666  0.8014
 7665SOL     OW24188   2.722   5.401   5.015 -0.1957  0.1462  0.2642
 7665SOL    HW124189   2.637   5.412   5.057 -0.2985 -0.0801  0.1146
 7665SOL    HW224190   2.768   5.484   5.031 -0.4321  0.2548  0.3721
 7666SOL     OW24191   6.509   3.725   3.163  0.6726 -0.3767  0.2113
 7666SOL    HW124192   6.473   3.767   3.084  0.5014 -1.6842 -0.4231
 7666SOL    HW224193   6.596   3.764   3.172 -0.7691  2.9132  1.8218
 7667SOL     OW24194   3.641   2.470   8.139 -0.1123  0.0103  0.0736
 7667SOL    HW124195   3.554   2.509   8.138  0.4652  1.4223 -1.4942
 7667SOL    HW224196   3.645   2.418   8.059  1.0989  1.5929 -0.9661
 7668SOL     OW24197   8.007   6.602   6.901 -0.5540 -0.1744  0.1221
 7668SOL    HW124198   7.979   6.625   6.989 -1.5452 -1.2532  0.1166
 7668SOL    HW224199   8.067   6.529   6.913  1.5043  1.4255  0.0540
 7669SOL     OW24200   5.368   5.326   7.866 -0.4273 -0.1867  0.0256
 7669SOL    HW124201   5.376   5.395   7.800  1.6966  0.4147  0.8339
 7669SOL    HW224202   5.355   5.246   7.816 -2.9967  0.7128 -0.9429
 7670SOL     OW24203   5.567   6.744   4.876  0.2337  0.5303 -0.0960
 7670SOL    HW124204   5.549   6.730   4.969  0.9909 -0.1166 -0.0390
 7670SOL    HW224205   5.500   6.692   4.831 -0.5639  1.3951  0.0729
 7671SOL     OW24206   5.062   4.762   2.110  0.3499  0.4925 -0.6032
 7671SOL    HW124207   5.134   4.749   2.050  1.3429 -1.7639  0.9212
 7671SOL    HW224208   4.987   4.720   2.067  0.8637 -0.4129 -0.6531
 7672SOL     OW24209   0.894   7.462   3.692  0.0000 -0.1785  0.1948
 7672SOL    HW124210   0.901   7.548   3.650  0.1515 -0.5372 -0.5248
 7672SOL    HW224211   0.824   7.417   3.645  1.6714 -1.4218 -1.2159
 7673SOL     OW24212   4.930   2.967   1.917  0.5939 -0.4131  0.1802
 7673SOL    HW124213   4.872   2.972   1.993  0.8302 -0.0107  0.3371
 7673SOL    HW224214   4.958   3.057   1.901  0.3048 -0.4501 -0.5763
 7674SOL     OW24215   5.585   2.608   6.900 -0.6285 -0.6248 -0.0544
 7674SOL    HW124216   5.620   2.519   6.896  1.8497  0.2974 -0.6825
 7674SOL    HW224217   5.604   2.637   6.990  0.8487  0.0616 -0.5489
 7675SOL     OW24218   1.627   2.255   6.426  0.0311  0.3103 -0.0234
 7675SOL    HW124219   1.677   2.294   6.498 -1.2538 -0.1806  1.1740
 7675SOL    HW224220   1.604   2.328   6.369  1.7320  0.6043 -0.3993
 7676SOL     OW24221   3.776   0.494   1.190  0.2595  0.4539 -0.3202
 7676SOL    HW124222   3.784   0.483   1.285  2.4039  1.6842 -0.2833
 7676SOL    HW224223   3.688   0.463   1.169 -0.1600 -0.1167  2.0177
 7677SOL     OW24224   6.451   1.758   7.993 -0.2496 -0.1663  0.2050
 7677SOL    HW124225   6.543   1.731   7.992 -0.0192  0.5666  0.6410
 7677SOL    HW224226   6.455   1.853   7.986 -1.0332 -0.2165 -1.1876
 7678SOL     OW24227   8.044   2.172   5.490  0.6939  0.0341 -0.0560
 7678SOL    HW124228   8.045   2.267   5.500 -0.8141  0.1017 -0.2954
 7678SOL    HW224229   8.071   2.139   5.576 -0.1111  0.6765  0.4610
 7679SOL     OW24230   4.327   6.978   5.509  0.1089  0.2751 -0.1330
 7679SOL    HW124231   4.241   6.951   5.476 -0.0341  0.0902  0.3835
 7679SOL    HW224232   4.340   7.066   5.473 -0.4629  0.4523  0.0841
 7680SOL     OW24233   2.665   4.220   0.880  0.0708 -0.1331  0.4735
 7680SOL    HW124234   2.662   4.143   0.823  2.2958  0.4753 -0.5704
 7680SOL    HW224235   2.672   4.184   0.969  0.8165 -1.1654  0.0190
 7681SOL     OW24236   1.538   5.567   4.494  0.2633  0.4894  0.6978
 7681SOL    HW124237   1.486   5.542   4.418 -1.2236 -1.1860  2.1696
 7681SOL    HW224238   1.600   5.495   4.505 -0.5111 -0.0283  1.8868
 7682SOL     OW24239   0.137   0.331   0.321  0.4316 -0.4325 -0.5154
 7682SOL    HW124240   0.080   0.288   0.257  0.2155  0.0358 -0.6401
 7682SOL    HW224241   0.107   0.421   0.323  0.8324 -0.3036 -0.1929
 7683SOL     OW24242   3.616   7.256   3.116  0.8759 -0.4621 -0.5226
 7683SOL    HW124243   3.671   7.290   3.187  1.3793 -1.6770 -0.3032
 7683SOL    HW224244   3.602   7.164   3.139 -0.0199 -0.5428 -1.3551
 7684SOL     OW24245   0.829   2.324   2.634  0.8761  0.3699  0.2020
 7684SOL    HW124246   0.748   2.343   2.682  1.9853  0.3256  2.1809
 7684SOL    HW224247   0.799   2.285   2.551 -1.1586 -2.5278  2.0919
 7685SOL     OW24248   8.517   8.144   4.721  0.1799  0.2255  0.1165
 7685SOL    HW124249   8.499   8.053   4.697 -2.9381  0.6213  0.5001
 7685SOL    HW224250   8.509   8.146   4.817  3.4863  0.3782  0.5019
 7686SOL     OW24251   4.156   7.810   5.154  0.6880 -0.1870 -0.4544
 7686SOL    HW124252   4.205   7.788   5.075 -1.3100  1.1292 -2.1530
 7686SOL    HW224253   4.187   7.897   5.178 -0.8529  0.7342 -1.6484
 7687SOL     OW24254   1.160   1.338   2.285 -0.3731  0.3398  0.8346
 7687SOL    HW124255   1.186   1.428   2.265  0.2840 -0.0382 -0.0911
 7687SOL    HW224256   1.177   1.290   2.205  0.3230 -0.8262  1.6459
 7688SOL     OW24257   1.608   6.157   8.538 -0.6545  0.6163 -0.0684
 7688SOL    HW124258   1.642   6.143   8.450  0.0378  0.5615  0.1956
 7688SOL    HW224259   1.687   6.175   8.591 -1.0002  0.0370  0.6548
 7689SOL     OW24260   2.399   0.907   2.861 -0.4562 -0.3559 -0.1607
 7689SOL    HW124261   2.392   0.931   2.953  0.4311 -0.8157  0.0396
 7689SOL    HW224262   2.367   0.816   2.857 -0.0772 -0.4879 -0.2270
 7690SOL     OW24263   4.082   8.549   0.661 -0.0982  0.3491  0.3638
 7690SOL    HW124264   4.035   8.495   0.725  0.6960 -0.6204  0.1376
 7690SOL    HW224265   4.161   8.499   0.640 -0.0132  0.9805 -0.8721
 7691SOL     OW24266   8.016   8.216   4.335  0.3240 -0.1230 -0.2955
 7691SOL    HW124267   7.957   8.284   4.366  2.8096  1.7870  0.5579
 7691SOL    HW224268   7.986   8.196   4.246 -2.1644 -0.0137  0.4600
 7692SOL     OW24269   5.417   6.616   1.192 -0.3175  0.5420  0.4189
 7692SOL    HW124270   5.335   6.572   1.215  0.3972 -1.7071 -0.9802
 7692SOL    HW224271   5.463   6.625   1.276 -0.8443 -0.7193  0.8764
 7693SOL     OW24272   6.441   3.464   4.862  0.1151  0.3271 -0.2490
 7693SOL    HW124273   6.493   3.543   4.850  1.0763 -0.3078 -0.3785
 7693SOL    HW224274   6.380   3.485   4.932  0.8069  0.9689  0.1760
 7694SOL     OW24275   4.492   3.486   2.029  0.4595 -0.1005 -0.7251
 7694SOL    HW124276   4.529   3.536   1.956  0.7565  0.3331 -0.2803
 7694SOL    HW224277   4.421   3.541   2.062 -1.1067 -1.2428 -2.0394
 7695SOL     OW24278   3.585   5.487   0.494  0.5004  0.7782 -0.3478
 7695SOL    HW124279   3.581   5.465   0.587 -0.0798 -0.9823 -0.7571
 7695SOL    HW224280   3.675   5.465   0.468  0.3274  0.1611 -0.4443
 7696SOL     OW24281   5.587   4.687   3.005  0.0846  0.0069  0.1731
 7696SOL    HW124282   5.546   4.773   3.013 -0.8110 -0.2647 -1.0563
 7696SOL    HW224283   5.617   4.666   3.093 -1.5866  0.6612  0.9492
 7697SOL     OW24284   5.407   1.975   3.018  0.1429 -0.5132  0.0125
 7697SOL    HW124285   5.422   1.919   2.942  1.2952  0.8106 -0.7756
 7697SOL    HW224286   5.352   2.046   2.985 -0.6907 -0.7490  0.8257
 7698SOL     OW24287   7.253   7.500   2.229 -0.2260  0.0574  0.6084
 7698SOL    HW124288   7.275   7.456   2.148 -0.1600  0.5739  0.3412
 7698SOL    HW224289   7.235   7.591   2.203 -1.5767 -0.0881  0.9740
 7699SOL     OW24290   0.773   4.318   1.377 -0.0866 -0.0734  0.1578
 7699SOL    HW124291   0.785   4.359   1.463 -1.0941 -0.0135  0.2871
 7699SOL    HW224292   0.856   4.332   1.332  0.1901  0.5787  0.8396
 7700SOL     OW24293   4.166   4.142   1.579 -0.0557 -0.0849  0.1836
 7700SOL    HW124294   4.251   4.185   1.574 -0.2374  0.4335  1.4123
 7700SOL    HW224295   4.181   4.065   1.634 -0.0728 -0.7904 -0.7692
 7701SOL     OW24296   2.640   2.083   8.377  0.0530  0.8060  0.4484
 7701SOL    HW124297   2.597   2.159   8.337  1.0608  1.4971  0.6498
 7701SOL    HW224298   2.568   2.032   8.416 -0.5727  1.9858  0.8663
 7702SOL     OW24299   2.444   5.352   3.597 -0.5875 -0.4183  0.0842
 7702SOL    HW124300   2.530   5.388   3.573  1.4753 -3.0316  2.9139
 7702SOL    HW224301   2.420   5.399   3.677 -1.9502  0.3315 -0.7090
 7703SOL     OW24302   7.202   3.788   3.501 -0.2108  0.0355  0.0420
 7703SOL    HW124303   7.294   3.799   3.523 -0.6129 -0.1870  1.9807
 7703SOL    HW224304   7.154   3.830   3.572 -1.6186 -1.3503 -0.0119
 7704SOL     OW24305   2.361   0.015   0.760 -0.5394 -0.4490  0.1359
 7704SOL    HW124306   2.381  -0.013   0.671 -0.2329  1.0033 -0.2787
 7704SOL    HW224307   2.419  -0.037   0.815 -0.4582 -1.0881 -0.5336
 7705SOL     OW24308   3.629   0.926   2.020  0.3210  0.1804  0.2202
 7705SOL    HW124309   3.583   0.996   1.973 -0.1989  0.0875  0.5879
 7705SOL    HW224310   3.605   0.938   2.112 -0.9480 -1.3416  0.1283
 7706SOL     OW24311   4.025   0.939   7.084  0.0374  0.3796 -0.6016
 7706SOL    HW124312   4.061   0.850   7.088  0.7860  0.7211  1.2323
 7706SOL    HW224313   3.930   0.927   7.084  0.1292 -0.4063  0.4925
 7707SOL     OW24314   3.696   7.312   0.911 -0.1718 -0.0597 -0.2978
 7707SOL    HW124315   3.786   7.294   0.886 -0.1749 -2.3248  1.0993
 7707SOL    HW224316   3.695   7.407   0.929  2.1497 -0.1141  0.4743
 7708SOL     OW24317   3.810   0.939   4.826  0.3457  0.4847  0.2090
 7708SOL    HW124318   3.731   0.993   4.822  1.6104  2.5338  1.1679
 7708SOL    HW224319   3.864   0.971   4.754  0.9153  0.1155  0.4692
 7709SOL     OW24320   6.610   0.270   3.794  0.0204 -0.9033 -0.0453
 7709SOL    HW124321   6.615   0.355   3.750  5.3083 -1.6582 -1.5843
 7709SOL    HW224322   6.560   0.215   3.734 -2.2299  0.6311  0.2987
 7710SOL     OW24323   7.271   6.447   2.363  0.1617 -0.3918 -0.2637
 7710SOL    HW124324   7.364   6.434   2.345  0.4650  0.8862  0.2678
 7710SOL    HW224325   7.229   6.368   2.329  1.5963 -1.7008  0.8169
 7711SOL     OW24326   0.462   0.234   0.039  0.3000  0.4580  0.1040
 7711SOL    HW124327   0.530   0.232  -0.028 -0.3862 -1.2480 -0.5999
 7711SOL    HW224328   0.462   0.324   0.071 -0.0356  1.6538 -2.9057
 7712SOL     OW24329   2.890   7.604   1.508  0.2767  0.4009  0.2081
 7712SOL    HW124330   2.893   7.525   1.562 -1.1431  0.9899  1.2142
 7712SOL    HW224331   2.797   7.625   1.502  0.5506  1.3694 -1.0050
 7713SOL     OW24332   6.589   3.407   7.334 -0.0315  0.0995 -0.0702
 7713SOL    HW124333   6.603   3.358   7.253  2.7466 -0.3300  0.5761
 7713SOL    HW224334   6.521   3.471   7.312  1.3415  0.6942 -3.0607
 7714SOL     OW24335   2.442   3.313   4.929  0.2196 -0.1620 -0.2685
 7714SOL    HW124336   2.494   3.237   4.906  1.1642  0.9886 -2.1966
 7714SOL    HW224337   2.402   3.341   4.847 -2.0747  0.0380  0.8347
 7715SOL     OW24338   3.797   2.755   4.648  0.8192  0.0025 -0.1619
 7715SOL    HW124339   3.864   2.819   4.671  0.8834  0.1196 -0.6481
 7715SOL    HW224340   3.722   2.809   4.620  0.6282 -0.1291  0.0927
 7716SOL     OW24341   2.777   2.176   5.245 -0.2003  0.2929  0.3007
 7716SOL    HW124342   2.792   2.238   5.316  1.8668  0.0973  0.0979
 7716SOL    HW224343   2.682   2.174   5.234 -0.6976 -0.3329  3.6433
 7717SOL     OW24344   8.429   1.455   1.708  0.6726  0.2843 -0.0894
 7717SOL    HW124345   8.422   1.540   1.665  0.6459  0.0788 -0.4936
 7717SOL    HW224346   8.498   1.467   1.774  0.2787  0.7770  0.2424
 7718SOL     OW24347   1.129   4.619   6.618 -0.3531  0.1527  0.0900
 7718SOL    HW124348   1.222   4.639   6.611 -0.5026  0.3083 -2.1065
 7718SOL    HW224349   1.126   4.533   6.661  0.9122 -0.5297 -1.0931
 7719SOL     OW24350   1.231   0.528   8.036 -0.0378  0.4560 -0.1642
 7719SOL    HW124351   1.252   0.435   8.037  0.2847  0.5073 -1.0326
 7719SOL    HW224352   1.207   0.546   7.945  0.7008  1.3929 -0.1866
 7720SOL     OW24353   8.246   4.502   5.865 -0.2473 -0.1685 -0.3278
 7720SOL    HW124354   8.239   4.448   5.944  1.4386 -1.3379 -0.9321
 7720SOL    HW224355   8.264   4.590   5.897 -0.3219 -0.4783  0.5958
 7721SOL     OW24356   0.446   2.509   8.504 -0.0850  0.8279  0.4586
 7721SOL    HW124357   0.457   2.598   8.539  1.3269  0.6984  0.3902
 7721SOL    HW224358   0.501   2.454   8.559 -0.2744  0.1297 -0.0339
 7722SOL     OW24359   5.962   8.153   2.111  0.4099 -0.1137 -0.1297
 7722SOL    HW124360   6.017   8.084   2.147  0.1552  1.5435  3.8761
 7722SOL    HW224361   5.886   8.107   2.076  1.3032 -1.9879  0.2414
 7723SOL     OW24362   2.982   3.618   7.077 -0.0412 -0.0940 -0.1049
 7723SOL    HW124363   3.071   3.628   7.112  0.7729  0.3750 -2.1565
 7723SOL    HW224364   2.966   3.700   7.030 -1.8832  0.1388  0.8446
 7724SOL     OW24365   7.909   6.664   4.133  0.7858 -0.3546  0.4785
 7724SOL    HW124366   7.984   6.610   4.158  0.0793 -1.7459 -0.2419
 7724SOL    HW224367   7.935   6.753   4.153  2.3093 -0.8886  1.0043
 7725SOL     OW24368   8.171   8.462   4.276  0.4349 -0.2843  0.2758
 7725SOL    HW124369   8.102   8.396   4.267  1.0044 -0.8351 -0.2117
 7725SOL    HW224370   8.191   8.463   4.370  0.4060 -0.7944  0.2912
 7726SOL     OW24371   2.497   3.315   2.387 -0.7114  0.1016  0.1426
 7726SOL    HW124372   2.417   3.268   2.366 -0.0135 -1.5723  1.0239
 7726SOL    HW224373   2.514   3.371   2.311 -1.0474 -1.8210 -1.4149
 7727SOL     OW24374   7.397   5.093   6.441  0.2054  0.1775 -0.1988
 7727SOL    HW124375   7.417   5.039   6.365  0.7448  0.7395 -0.4622
 7727SOL    HW224376   7.309   5.127   6.424  0.7398  1.1648 -1.0924
 7728SOL     OW24377   4.449   3.001   8.211 -0.3466  0.0850 -0.7658
 7728SOL    HW124378   4.357   3.022   8.225 -0.5387 -0.8502 -0.5503
 7728SOL    HW224379   4.488   3.082   8.180 -1.0299  0.7825  0.1421
 7729SOL     OW24380   2.992   8.151   0.892 -0.1032  0.1368  0.0949
 7729SOL    HW124381   2.971   8.189   0.977  1.1976  1.2583 -0.0447
 7729SOL    HW224382   3.028   8.064   0.912  0.7357  0.6199  0.7493
 7730SOL     OW24383   0.164   7.101   4.990  0.2076  0.1239 -0.4268
 7730SOL    HW124384   0.138   7.188   5.018  0.1832 -0.6277  2.1228
 7730SOL    HW224385   0.125   7.092   4.902 -0.4678  2.3338 -0.4205
 7731SOL     OW24386   7.652   6.466   7.778 -0.4474 -0.4566  0.2507
 7731SOL    HW124387   7.657   6.492   7.870 -0.0221 -0.9565  0.3709
 7731SOL    HW224388   7.723   6.404   7.766  1.2089  1.5583 -1.0884
 7732SOL     OW24389   3.287   1.101   1.893  0.0661  0.4370  0.1142
 7732SOL    HW124390   3.229   1.135   1.824 -0.9326 -0.4130  0.5163
 7732SOL    HW224391   3.271   1.160   1.968 -1.9493 -1.0388  0.9357
 7733SOL     OW24392   8.522   2.712   1.084  0.3346 -0.1729 -0.2344
 7733SOL    HW124393   8.527   2.709   1.179  2.3301 -1.3341 -0.3282
 7733SOL    HW224394   8.453   2.650   1.061 -0.9627  0.9702  0.4647
 7734SOL     OW24395   6.559   8.551   1.057 -0.7105  0.0712 -0.0753
 7734SOL    HW124396   6.530   8.613   0.991  0.1243 -0.3346 -0.8505
 7734SOL    HW224397   6.564   8.602   1.138  2.2464  1.6713 -1.1327
 7735SOL     OW24398   1.424   1.435   7.747  0.0270  0.5900 -0.1288
 7735SOL    HW124399   1.381   1.355   7.778 -2.2446  1.0386 -1.8180
 7735SOL    HW224400   1.508   1.405   7.712  0.3850 -0.6269  1.6652
 7736SOL     OW24401   7.994   4.262   6.664 -0.6181  0.1780  0.5180
 7736SOL    HW124402   7.965   4.186   6.714  0.8090  0.3992  1.7619
 7736SOL    HW224403   7.914   4.298   6.626 -2.0122  0.6636  3.6219
 7737SOL     OW24404   6.220   7.747   2.730 -0.0979  0.8212  0.4642
 7737SOL    HW124405   6.126   7.756   2.715  0.0750  1.7947 -0.1009
 7737SOL    HW224406   6.259   7.824   2.689  1.1875 -0.7326 -1.4802
 7738SOL     OW24407   0.418   3.882   2.651 -0.1500  0.1816  0.8882
 7738SOL    HW124408   0.466   3.821   2.707  0.3029 -1.5169 -1.2112
 7738SOL    HW224409   0.486   3.941   2.615 -0.1809  0.1676  0.8059
 7739SOL     OW24410   5.147   2.899   7.547 -0.0221  0.2689  0.3699
 7739SOL    HW124411   5.169   2.806   7.542  2.1658  0.6931  0.9210
 7739SOL    HW224412   5.196   2.930   7.623 -1.1400  1.7807  0.5033
 7740SOL     OW24413   4.638   6.084   4.431 -0.1497  0.0761  0.5207
 7740SOL    HW124414   4.668   6.154   4.374 -0.5556  0.2849  0.5594
 7740SOL    HW224415   4.642   6.121   4.519 -0.0003 -0.0774  0.5785
 7741SOL     OW24416   2.971   6.926   3.333 -0.1275  0.2374 -0.0967
 7741SOL    HW124417   3.056   6.969   3.338  0.8683 -1.5549 -0.6937
 7741SOL    HW224418   2.932   6.961   3.253  0.8558 -0.2567 -0.8201
 7742SOL     OW24419   6.146   8.086   6.672 -0.6401 -0.3946  1.0106
 7742SOL    HW124420   6.143   8.118   6.763 -0.1379  1.9368  0.2819
 7742SOL    HW224421   6.080   8.138   6.627 -0.1912 -0.8273 -0.1699
 7743SOL     OW24422   2.861   7.160   8.595  0.9574 -0.9034  0.4216
 7743SOL    HW124423   2.862   7.221   8.522 -0.2914 -1.2355  0.1024
 7743SOL    HW224424   2.952   7.134   8.606  1.2245 -0.4857 -0.7165
 7744SOL     OW24425   0.593   0.013   5.266  0.5245 -0.7958 -0.0841
 7744SOL    HW124426   0.627  -0.072   5.297  0.1228 -0.6903  0.6578
 7744SOL    HW224427   0.671   0.061   5.238  0.7348 -1.4929 -0.7363
 7745SOL     OW24428   6.698   8.214   6.401  0.4519  0.3804 -0.0123
 7745SOL    HW124429   6.757   8.231   6.328  0.5022 -1.5707 -0.4655
 7745SOL    HW224430   6.744   8.249   6.477  0.7556  1.7104 -0.7809
 7746SOL     OW24431   8.043   1.779   1.244 -0.4789  0.1468  0.2792
 7746SOL    HW124432   8.083   1.861   1.273 -0.9227  1.2131 -1.9376
 7746SOL    HW224433   8.115   1.715   1.248  0.7416  1.3783 -0.9079
 7747SOL     OW24434   8.103   7.018   1.261  0.1405 -0.1318  0.3401
 7747SOL    HW124435   8.023   7.007   1.313  0.6395 -0.2663  1.0922
 7747SOL    HW224436   8.072   7.025   1.171 -0.7545  0.3178  0.6739
 7748SOL     OW24437   6.327   3.727   3.873 -0.3542  0.0845 -0.2001
 7748SOL    HW124438   6.382   3.780   3.816  0.5351 -0.0098  0.5597
 7748SOL    HW224439   6.321   3.642   3.829  1.2620 -0.3523  0.3761
 7749SOL     OW24440   2.672   5.034   2.245 -0.2360  0.0606  0.0868
 7749SOL    HW124441   2.723   5.085   2.308  0.6840  0.1281 -0.6792
 7749SOL    HW224442   2.718   4.951   2.239 -1.3878 -0.6616  0.8780
 7750SOL     OW24443   4.672   5.793   3.721  0.0530 -0.1636 -0.1773
 7750SOL    HW124444   4.759   5.834   3.720  0.1520 -0.3418 -1.5262
 7750SOL    HW224445   4.674   5.733   3.646 -1.1338 -0.3744 -0.0493
 7751SOL     OW24446   3.427   8.046   0.995  0.1091  0.4872 -0.5239
 7751SOL    HW124447   3.450   7.963   0.955  1.0160  0.2598  0.4210
 7751SOL    HW224448   3.349   8.075   0.948 -0.3405 -0.9908 -0.7365
 7752SOL     OW24449   5.019   8.044   4.320  0.4350  0.3856 -0.4807
 7752SOL    HW124450   4.946   7.989   4.349 -0.2439  1.0370 -0.9121
 7752SOL    HW224451   4.977   8.117   4.274  1.4050  0.2695 -1.5919
 7753SOL     OW24452   5.402   7.950   3.418 -0.3605 -0.3101 -0.1693
 7753SOL    HW124453   5.479   7.970   3.472 -0.4542 -0.0607 -0.1292
 7753SOL    HW224454   5.329   7.993   3.463 -0.4166  0.0221 -0.5764
 7754SOL     OW24455   0.611   3.954   4.612 -0.4850 -0.2497 -0.2502
 7754SOL    HW124456   0.539   4.017   4.622  0.0790  0.4559 -0.5618
 7754SOL    HW224457   0.680   3.989   4.668 -0.8927 -1.7436  1.2761
 7755SOL     OW24458   3.630   4.827   5.875 -0.0670  0.0333 -0.3139
 7755SOL    HW124459   3.725   4.841   5.877 -0.1519  0.5398  0.1784
 7755SOL    HW224460   3.592   4.911   5.900 -0.6912  0.2874 -1.9527
 7756SOL     OW24461   4.063   5.458   1.323 -0.6055  0.0004  0.8033
 7756SOL    HW124462   4.137   5.490   1.375 -0.5574  0.7780  0.2745
 7756SOL    HW224463   4.019   5.395   1.380  1.4511 -1.8085  0.5010
 7757SOL     OW24464   2.188   7.824   6.489  0.1259  0.3115  0.2557
 7757SOL    HW124465   2.156   7.736   6.472  2.0701 -0.5720  0.9531
 7757SOL    HW224466   2.120   7.863   6.545 -1.6510 -0.0399 -1.5350
 7758SOL     OW24467   0.863   0.268   3.547 -0.1784 -0.0571  0.3169
 7758SOL    HW124468   0.852   0.332   3.478 -0.1334 -0.5846 -0.1911
 7758SOL    HW224469   0.775   0.249   3.578 -0.3938 -1.2994 -0.9804
 7759SOL     OW24470   7.350   6.067   8.308  0.0205  0.4783  0.6810
 7759SOL    HW124471   7.423   6.118   8.273  0.4372 -1.6434 -1.8693
 7759SOL    HW224472   7.287   6.062   8.237  0.0471 -2.5387  0.7282
 7760SOL     OW24473   2.294   4.317   1.014 -0.1080 -0.6852  0.1937
 7760SOL    HW124474   2.234   4.281   1.079  0.5042 -0.9774  0.6011
 7760SOL    HW224475   2.374   4.337   1.063  0.3283 -0.8303 -0.4498
 7761SOL     OW24476   3.288   4.210   7.654  0.0764  0.4611  0.6184
 7761SOL    HW124477   3.235   4.132   7.672  1.0467 -0.5868 -0.7588
 7761SOL    HW224478   3.314   4.200   7.563  0.4628  2.2929  0.4946
 7762SOL     OW24479   6.979   6.725   4.031 -0.7680 -0.2864  0.2614
 7762SOL    HW124480   7.002   6.778   3.955 -1.8447  1.6412  1.2088
 7762SOL    HW224481   7.060   6.718   4.081 -0.4053 -0.3177 -0.3203
 7763SOL     OW24482   3.600   3.049   0.104 -0.0955 -0.4887 -0.0943
 7763SOL    HW124483   3.607   2.965   0.058 -2.9426 -0.8301 -0.0557
 7763SOL    HW224484   3.522   3.090   0.067  1.7781  2.7054 -0.8752
 7764SOL     OW24485   4.376   0.653   6.081 -0.0380 -0.7821  0.3346
 7764SOL    HW124486   4.364   0.563   6.053 -0.1538 -0.6694  0.0283
 7764SOL    HW224487   4.392   0.702   6.001 -0.2552 -0.4821  0.4735
 7765SOL     OW24488   2.978   8.310   8.583  0.1082 -0.1482  0.1445
 7765SOL    HW124489   2.919   8.305   8.658 -1.3188  0.6237 -0.8953
 7765SOL    HW224490   3.030   8.230   8.589 -1.0780 -0.8872  1.0579
 7766SOL     OW24491   5.627   0.190   4.684  0.0356  0.0968 -0.0560
 7766SOL    HW124492   5.559   0.138   4.727  0.3813 -0.0388  0.3322
 7766SOL    HW224493   5.663   0.245   4.754  1.4220 -0.9786  0.1309
 7767SOL     OW24494   2.404   3.059   5.364 -0.0819 -0.2538  0.7588
 7767SOL    HW124495   2.399   3.147   5.401  1.8750  0.6083 -0.8039
 7767SOL    HW224496   2.361   3.003   5.428 -0.4307  1.6906  2.3157
 7768SOL     OW24497   4.669   2.200   5.836  0.4525 -0.0448  0.0570
 7768SOL    HW124498   4.658   2.172   5.745  0.8083  0.1939 -0.0618
 7768SOL    HW224499   4.579   2.215   5.867  0.2220 -1.6640  0.2533
 7769SOL     OW24500   1.968   2.361   5.762 -0.1542  0.4836 -0.1682
 7769SOL    HW124501   2.041   2.415   5.791  0.1532 -0.1995  0.3722
 7769SOL    HW224502   1.902   2.371   5.831 -0.2389  0.4567 -0.2455
 7770SOL     OW24503   0.924   6.357   4.547 -0.6938  1.2541 -0.0596
 7770SOL    HW124504   0.845   6.303   4.538  0.2215 -0.1035 -0.3023
 7770SOL    HW224505   0.972   6.344   4.466  0.2158  1.3250  0.4480
 7771SOL     OW24506   1.020   4.154   0.321 -0.4316  0.2283  0.3611
 7771SOL    HW124507   0.940   4.113   0.355 -1.9338  0.9205 -2.0532
 7771SOL    HW224508   1.008   4.247   0.339  0.4629  0.2088  1.1127
 7772SOL     OW24509   2.538   0.651   5.359  0.3663 -0.1343  0.5128
 7772SOL    HW124510   2.470   0.583   5.357 -0.3398  0.5695 -0.0803
 7772SOL    HW224511   2.569   0.651   5.449 -1.3044  0.3743  1.1202
 7773SOL     OW24512   4.878   6.669   4.465  0.2516 -0.3323 -0.8192
 7773SOL    HW124513   4.814   6.623   4.520 -0.6040 -0.5321 -1.9504
 7773SOL    HW224514   4.828   6.742   4.427  1.1623  0.5588 -0.3450
 7774SOL     OW24515   5.720   3.055   5.389 -0.0554  0.4720 -0.6783
 7774SOL    HW124516   5.660   3.001   5.441  0.6704 -0.2716 -0.5964
 7774SOL    HW224517   5.782   3.090   5.453 -0.0610  0.7918 -0.8441
 7775SOL     OW24518   5.520   5.926   6.496 -0.5444 -0.4230  0.1677
 7775SOL    HW124519   5.605   5.905   6.457 -0.5914  0.3077 -0.3612
 7775SOL    HW224520   5.533   6.012   6.535 -1.1034 -0.1948 -0.1386
 7776SOL     OW24521   4.091   2.085   5.495  0.0986 -0.4694 -0.2363
 7776SOL    HW124522   4.020   2.083   5.560  0.5439 -1.6482  0.2442
 7776SOL    HW224523   4.053   2.045   5.417  0.0199 -0.4380 -0.2149
 7777SOL     OW24524   6.535   8.046   1.820  0.0379 -0.6885 -0.2939
 7777SOL    HW124525   6.544   7.953   1.841  0.1854 -0.8916 -1.2090
 7777SOL    HW224526   6.471   8.079   1.883  2.3555 -0.6538  2.2215
 7778SOL     OW24527   3.281   8.572   3.702  0.4211 -0.0203 -0.3260
 7778SOL    HW124528   3.309   8.663   3.713  0.7243  0.0393 -1.5077
 7778SOL    HW224529   3.303   8.530   3.786 -0.6086  1.1991  0.5906
 7779SOL     OW24530   6.768   2.900   0.581 -0.1678 -0.3348  0.4552
 7779SOL    HW124531   6.788   2.934   0.494  1.6379  0.3620  1.0941
 7779SOL    HW224532   6.716   2.969   0.622 -1.7854 -1.0447 -0.3440
 7780SOL     OW24533   0.985   1.532   2.708 -0.7147 -0.1824 -0.3173
 7780SOL    HW124534   1.024   1.465   2.653  0.0038  0.8076 -1.0533
 7780SOL    HW224535   1.027   1.521   2.793 -0.3265 -0.4284 -0.5390
 7781SOL     OW24536   2.969   5.389   7.908 -0.2842  0.4872  0.0923
 7781SOL    HW124537   3.026   5.416   7.980 -0.1155 -1.4479  0.7471
 7781SOL    HW224538   2.897   5.342   7.950 -0.4878 -0.1730 -0.9511
 7782SOL     OW24539   2.398   3.128   4.212  0.2005  0.1857  0.4483
 7782SOL    HW124540   2.442   3.132   4.297 -0.0379 -1.7632  0.7145
 7782SOL    HW224541   2.399   3.035   4.189  1.0472  0.7386 -2.1136
 7783SOL     OW24542   1.630   4.951   4.061  0.1949  0.8277 -0.2017
 7783SOL    HW124543   1.588   4.873   4.024  0.6911  0.9275 -0.9782
 7783SOL    HW224544   1.589   4.960   4.147  0.4973 -0.5911  0.1230
 7784SOL     OW24545   6.002   2.927   0.266  0.2441  0.4255 -0.5241
 7784SOL    HW124546   5.977   2.909   0.357 -0.0440 -1.7676 -0.9700
 7784SOL    HW224547   6.095   2.950   0.271  0.6243 -1.0923  0.2312
 7785SOL     OW24548   1.525   5.440   3.199  0.0988 -0.2754 -0.0666
 7785SOL    HW124549   1.538   5.519   3.251 -0.6064 -0.2688  0.1012
 7785SOL    HW224550   1.611   5.396   3.201  0.7021  0.8403 -0.7800
 7786SOL     OW24551   4.248   0.741   7.808 -0.3602 -0.1493 -0.0592
 7786SOL    HW124552   4.159   0.763   7.780 -0.7289 -1.2614  0.1895
 7786SOL    HW224553   4.259   0.784   7.892 -1.8008 -2.4235  1.4036
 7787SOL     OW24554   1.274   4.246   6.868  0.2441 -0.6230 -0.2726
 7787SOL    HW124555   1.179   4.257   6.873  0.2358 -1.0701  2.7513
 7787SOL    HW224556   1.309   4.311   6.929  1.6744 -2.0660  0.5345
 7788SOL     OW24557   4.903   5.184   8.369 -0.7146 -0.2679 -0.5310
 7788SOL    HW124558   4.947   5.099   8.376 -0.6392 -0.3900 -2.0986
 7788SOL    HW224559   4.811   5.164   8.386 -0.6989 -0.6845 -0.8965
 7789SOL     OW24560   5.759   8.513   5.942 -0.3223  0.1777  0.6222
 7789SOL    HW124561   5.774   8.504   5.848 -0.6599 -0.8291  0.6537
 7789SOL    HW224562   5.694   8.583   5.949  0.2397  0.7578  0.1573
 7790SOL     OW24563   2.272   8.028   2.493 -0.1328  0.0912 -0.1858
 7790SOL    HW124564   2.281   7.966   2.566 -1.1453 -0.5929 -0.6262
 7790SOL    HW224565   2.243   8.109   2.534  1.0221  0.2420  0.3746
 7791SOL     OW24566   3.608   4.097   5.737 -0.4227 -0.6392  0.2190
 7791SOL    HW124567   3.689   4.140   5.766  0.7077 -2.1779 -0.4991
 7791SOL    HW224568   3.544   4.116   5.806  0.9772 -0.6315  1.5635
 7792SOL     OW24569   2.903   4.891   6.973 -0.3085  0.1115  0.4662
 7792SOL    HW124570   2.905   4.874   6.878  0.0480  0.4855  0.4062
 7792SOL    HW224571   2.912   4.986   6.980 -1.5887  0.2207  0.8304
 7793SOL     OW24572   6.770   1.857   2.821  0.0361  0.4149 -0.0017
 7793SOL    HW124573   6.763   1.943   2.780 -1.2186  0.3994  0.1336
 7793SOL    HW224574   6.783   1.876   2.914 -0.4074  0.4697  0.0526
 7794SOL     OW24575   1.044   4.217   7.202 -0.2912  0.7412 -0.4363
 7794SOL    HW124576   1.018   4.214   7.294  0.6700 -0.3386 -0.1842
 7794SOL    HW224577   1.136   4.242   7.204 -0.3646  1.0940 -1.1345
 7795SOL     OW24578   0.453   2.914   1.706 -0.3775 -0.4108 -0.0616
 7795SOL    HW124579   0.420   3.003   1.698 -0.4169 -0.2449  1.5784
 7795SOL    HW224580   0.491   2.910   1.794 -0.9522 -2.1868  0.1450
 7796SOL     OW24581   7.675   2.950   5.441  0.0311  0.0681  0.4865
 7796SOL    HW124582   7.708   2.905   5.519  0.1673 -0.9610 -0.1515
 7796SOL    HW224583   7.630   2.882   5.391  0.9084  0.4723 -0.8835
 7797SOL     OW24584   1.255   1.713   6.029 -0.6444  0.0283  0.5469
 7797SOL    HW124585   1.189   1.759   6.082 -0.8835  0.0606  0.2252
 7797SOL    HW224586   1.271   1.771   5.954 -0.2240  0.0347  0.6405
 7798SOL     OW24587   6.271   4.049   6.990  0.1257  0.3354 -0.8767
 7798SOL    HW124588   6.232   4.031   6.904  3.0715 -0.8571 -2.0799
 7798SOL    HW224589   6.365   4.041   6.976  0.6761 -1.5950  2.8429
 7799SOL     OW24590   1.421   5.969   0.004 -0.2614  0.3266  0.3471
 7799SOL    HW124591   1.416   6.015   0.088  0.0690  0.9191  0.0420
 7799SOL    HW224592   1.506   5.993  -0.032  0.6493 -1.8362  0.9323
 7800SOL     OW24593   7.076   0.762   0.050  0.6085 -0.5516  0.3731
 7800SOL    HW124594   7.028   0.719   0.120  0.5143 -0.7709  0.1762
 7800SOL    HW224595   7.167   0.739   0.065  0.5385 -0.9838  0.1572
 7801SOL     OW24596   2.294   6.101   2.863  0.3503 -0.1149 -0.4452
 7801SOL    HW124597   2.230   6.041   2.900  2.1344 -1.3280  0.8549
 7801SOL    HW224598   2.356   6.044   2.817  1.7315  0.7670  0.2614
 7802SOL     OW24599   6.511   5.616   7.015  0.2044  0.5797 -0.2315
 7802SOL    HW124600   6.557   5.536   7.039 -0.5694 -0.2958 -1.5715
 7802SOL    HW224601   6.451   5.631   7.088  0.3979 -0.0173  0.0593
 7803SOL     OW24602   2.606   2.152   7.695 -0.8858  0.3786 -0.1376
 7803SOL    HW124603   2.585   2.066   7.730 -1.4499  0.8939  0.8237
 7803SOL    HW224604   2.536   2.170   7.631 -0.1646 -0.3219 -1.1525
 7804SOL     OW24605   3.081   0.434   4.065  0.0222  0.2867  0.4026
 7804SOL    HW124606   3.001   0.486   4.071 -0.2450  0.3893 -2.5677
 7804SOL    HW224607   3.052   0.349   4.034  0.9499 -0.1010  0.5662
 7805SOL     OW24608   1.436   4.240   2.727 -0.0448  0.0411 -0.3299
 7805SOL    HW124609   1.491   4.309   2.764 -1.0256  0.3045  0.7051
 7805SOL    HW224610   1.346   4.265   2.751 -0.3558 -2.1650  1.1415
 7806SOL     OW24611   4.397   1.117   8.344 -0.1331  0.1472 -0.1031
 7806SOL    HW124612   4.351   1.060   8.406  0.2166  0.9152  0.8934
 7806SOL    HW224613   4.419   1.195   8.395 -0.9352  1.3550 -1.5366
 7807SOL     OW24614   3.024   2.831   1.253  0.2958  0.4395  0.4745
 7807SOL    HW124615   2.988   2.845   1.340 -0.5854 -0.4871  0.2759
 7807SOL    HW224616   2.950   2.798   1.201  1.1535 -0.4458 -0.2324
 7808SOL     OW24617   0.666   7.440   6.587 -0.3001 -0.3314  0.0141
 7808SOL    HW124618   0.582   7.461   6.547 -0.2822  0.3057  0.3089
 7808SOL    HW224619   0.720   7.410   6.514 -0.4773  0.1951 -0.3359
 7809SOL     OW24620   2.902   1.914   2.645 -0.1970  0.3455 -0.1894
 7809SOL    HW124621   2.967   1.870   2.591 -0.2289 -0.2511  0.2546
 7809SOL    HW224622   2.827   1.855   2.646 -0.1602  0.3005  0.5824
 7810SOL     OW24623   5.526   4.724   6.032 -0.0773 -0.1396  0.4527
 7810SOL    HW124624   5.437   4.759   6.035  0.1791  0.5647 -0.0455
 7810SOL    HW224625   5.518   4.642   5.984 -0.3048  0.3913 -0.4207
 7811SOL     OW24626   0.438   4.642   5.626  0.4180 -0.6920  0.2922
 7811SOL    HW124627   0.465   4.631   5.535  1.3329  0.2339  0.4379
 7811SOL    HW224628   0.354   4.688   5.621  1.0206  0.3796 -0.0608
 7812SOL     OW24629   1.752   3.493   3.331  0.1645  0.6135 -0.2075
 7812SOL    HW124630   1.826   3.437   3.307  0.0392  0.4949 -0.3169
 7812SOL    HW224631   1.740   3.476   3.425 -0.2326  0.0294 -0.3588
 7813SOL     OW24632   1.109   4.441   7.557 -0.1800  0.0619 -0.1376
 7813SOL    HW124633   1.144   4.465   7.643 -0.3868 -0.9206  0.2317
 7813SOL    HW224634   1.138   4.512   7.500  0.3071  0.5292  0.6551
 7814SOL     OW24635   1.508   5.821   6.432  0.4903 -0.3010  0.6740
 7814SOL    HW124636   1.557   5.887   6.482  0.6249 -0.3586  0.6196
 7814SOL    HW224637   1.532   5.738   6.473  0.7045 -0.3610  0.4318
 7815SOL     OW24638   3.063   1.437   0.150 -1.1182  0.2283  0.3353
 7815SOL    HW124639   3.106   1.462   0.067  0.1656  1.7841  1.3971
 7815SOL    HW224640   3.112   1.361   0.181  0.8664  1.8517  1.4219
 7816SOL     OW24641   7.517   0.886   1.597  0.0755  0.3885  0.0255
 7816SOL    HW124642   7.433   0.927   1.619  0.6860  0.9881  1.3198
 7816SOL    HW224643   7.499   0.792   1.601 -1.0816  0.4590 -1.9726
 7817SOL     OW24644   5.822   2.176   3.449  0.0096 -0.1619 -0.4954
 7817SOL    HW124645   5.854   2.258   3.412  0.4023  0.4179  1.0529
 7817SOL    HW224646   5.727   2.183   3.445  0.0465  0.2807 -0.5826
 7818SOL     OW24647   0.566   2.811   1.953  0.8305  0.1772 -0.4281
 7818SOL    HW124648   0.598   2.885   2.004  0.1061  0.6626 -0.6635
 7818SOL    HW224649   0.553   2.741   2.018 -1.6135  1.2679  0.3815
 7819SOL     OW24650   4.923   4.363   1.322  0.3391  0.2453  0.1144
 7819SOL    HW124651   4.828   4.375   1.332  0.6270  2.7294  0.7023
 7819SOL    HW224652   4.958   4.378   1.410  1.3838  1.2379 -0.4321
 7820SOL     OW24653   6.267   3.429   7.010 -0.5722 -0.2906  1.0179
 7820SOL    HW124654   6.352   3.406   6.971 -1.3091  0.4059 -1.1438
 7820SOL    HW224655   6.266   3.524   7.009 -2.2237 -0.2775 -1.0368
 7821SOL     OW24656   4.336   7.501   6.198 -0.0029  0.5102 -0.3266
 7821SOL    HW124657   4.379   7.552   6.265 -2.8363  0.6577  1.5516
 7821SOL    HW224658   4.265   7.557   6.166 -2.0074 -1.4474  0.4280
 7822SOL     OW24659   3.580   0.731   2.550 -0.3778 -0.0002 -0.2535
 7822SOL    HW124660   3.671   0.759   2.561 -0.9363  1.1475  2.0744
 7822SOL    HW224661   3.550   0.712   2.639 -2.3641 -0.5476 -0.9918
 7823SOL     OW24662   1.115   3.010   2.289 -0.1036 -0.0496  0.2337
 7823SOL    HW124663   1.062   3.081   2.324  0.5804  0.7716 -0.3590
 7823SOL    HW224664   1.154   2.969   2.367 -0.0067  0.6313  0.5509
 7824SOL     OW24665   5.334   7.748   0.358  0.0158  0.3964  0.3576
 7824SOL    HW124666   5.365   7.660   0.339  1.1541  0.4901  1.6142
 7824SOL    HW224667   5.288   7.740   0.441 -1.4298  0.6845 -0.3885
 7825SOL     OW24668   7.878   1.644   5.900 -0.3770  0.3330 -0.8307
 7825SOL    HW124669   7.821   1.721   5.904  0.0484  0.6062  0.1184
 7825SOL    HW224670   7.820   1.570   5.916 -0.5859  0.5477 -0.5936
 7826SOL     OW24671   6.359   0.349   3.073  0.4574 -0.0950 -0.4679
 7826SOL    HW124672   6.270   0.380   3.088  0.6414 -0.2372  1.0706
 7826SOL    HW224673   6.414   0.427   3.078  0.5333 -0.1605 -0.2494
 7827SOL     OW24674   3.833   4.652   0.320 -0.4064 -0.5901 -0.3058
 7827SOL    HW124675   3.772   4.605   0.264  0.1386 -2.1437  0.3407
 7827SOL    HW224676   3.790   4.658   0.405 -0.5899  0.3850 -0.4470
 7828SOL     OW24677   2.031   1.321   1.447  0.5634 -0.9096 -0.1679
 7828SOL    HW124678   1.943   1.326   1.486  0.9248  3.0468  0.5829
 7828SOL    HW224679   2.091   1.323   1.521  1.2773 -1.0273 -0.7324
 7829SOL     OW24680   7.572   0.690   7.704 -0.2400  0.4165 -0.4618
 7829SOL    HW124681   7.509   0.620   7.717  0.7936 -0.1441  2.3419
 7829SOL    HW224682   7.528   0.768   7.738  0.1452  0.2285  0.5087
 7830SOL     OW24683   1.663   5.196   0.346 -0.6894  0.0226 -0.1241
 7830SOL    HW124684   1.673   5.208   0.441 -1.1956 -2.6167  0.3535
 7830SOL    HW224685   1.574   5.161   0.337  0.0406 -1.5899 -1.3440
 7831SOL     OW24686   1.685   0.205   3.390  0.1553 -0.1624 -0.2676
 7831SOL    HW124687   1.750   0.263   3.352 -1.1442  0.8570 -1.0299
 7831SOL    HW224688   1.712   0.117   3.363 -1.0824  0.4996 -4.4325
 7832SOL     OW24689   3.304   4.048   1.247  0.4047  0.1195  0.3621
 7832SOL    HW124690   3.263   4.032   1.332  2.3076  1.0021  1.5232
 7832SOL    HW224691   3.231   4.060   1.187 -1.0020 -0.8808  1.7900
 7833SOL     OW24692   3.045   6.837   4.250 -0.6214 -0.0565 -0.3446
 7833SOL    HW124693   3.139   6.819   4.254 -0.8691 -2.0333 -2.0407
 7833SOL    HW224694   3.038   6.929   4.276  1.8924  0.4527 -1.1591
 7834SOL     OW24695   3.214   6.733   6.291  0.6015 -0.3986  0.2886
 7834SOL    HW124696   3.235   6.683   6.369  1.4101  0.5822  0.7259
 7834SOL    HW224697   3.118   6.742   6.294  0.6958  0.5293  1.7666
 7835SOL     OW24698   0.698   0.159   5.822  0.2638  0.8299  0.1341
 7835SOL    HW124699   0.777   0.191   5.778  0.3904 -0.6091 -0.7208
 7835SOL    HW224700   0.692   0.067   5.798 -0.4671  0.3506  1.9750
 7836SOL     OW24701   6.592   5.541   3.759 -0.0543  0.4436  0.2715
 7836SOL    HW124702   6.649   5.556   3.834  0.3138  0.1628  0.0534
 7836SOL    HW224703   6.606   5.616   3.702  1.1132 -0.2475 -0.4029
 7837SOL     OW24704   2.458   5.566   2.352 -0.2660 -1.1131  0.3034
 7837SOL    HW124705   2.387   5.518   2.310 -0.1016 -0.9758 -0.1374
 7837SOL    HW224706   2.471   5.523   2.437 -1.4676 -0.5972  0.7689
 7838SOL     OW24707   4.672   0.904   4.551 -0.2601  0.5911 -0.5611
 7838SOL    HW124708   4.757   0.890   4.592 -0.6556  0.6876  0.3299
 7838SOL    HW224709   4.687   0.892   4.457  0.5770 -0.1112 -0.3436
 7839SOL     OW24710   8.508   2.321   5.048  0.3195 -0.1864 -0.0501
 7839SOL    HW124711   8.600   2.337   5.025  1.0735 -1.7791  1.6450
 7839SOL    HW224712   8.498   2.360   5.135 -0.4588 -0.5274  0.0219
 7840SOL     OW24713   3.803   7.143   7.237 -0.4641 -0.0851 -0.2317
 7840SOL    HW124714   3.818   7.193   7.317  1.6643  0.7285 -1.0850
 7840SOL    HW224715   3.890   7.121   7.206 -1.2776 -1.1395 -1.8828
 7841SOL     OW24716   1.679   1.643   4.966  0.1715  0.4518 -0.4303
 7841SOL    HW124717   1.647   1.554   4.982  0.3971  0.2990 -0.8176
 7841SOL    HW224718   1.658   1.660   4.874  0.2841  0.7366 -0.4060
 7842SOL     OW24719   1.684   5.207   2.692 -0.1656  0.3789  0.0705
 7842SOL    HW124720   1.617   5.235   2.629 -0.5503  0.2805  0.4285
 7842SOL    HW224721   1.652   5.122   2.723 -0.1499  0.5745  0.6377
 7843SOL     OW24722   3.725   1.908   7.795 -0.2744  0.4152  0.2067
 7843SOL    HW124723   3.787   1.973   7.827 -0.4829  0.4514  0.5438
 7843SOL    HW224724   3.647   1.958   7.772  0.2596  0.5401 -1.4595
 7844SOL     OW24725   8.027   8.346   7.273  0.4132  0.2321 -0.1718
 7844SOL    HW124726   7.976   8.376   7.348  1.6027  0.3129  0.6183
 7844SOL    HW224727   8.105   8.307   7.310  1.8973  1.8549 -1.3744
 7845SOL     OW24728   8.183   0.053   4.955  0.1512  0.7529  0.2201
 7845SOL    HW124729   8.113   0.118   4.953  0.4678  1.0873 -1.3544
 7845SOL    HW224730   8.191   0.029   5.047 -3.6619 -1.0987  0.2929
 7846SOL     OW24731   3.752   7.004   2.083 -0.0290 -0.6368 -0.0950
 7846SOL    HW124732   3.698   7.062   2.136  0.5818  0.1993 -0.3677
 7846SOL    HW224733   3.838   7.045   2.082  1.3198 -3.1113  2.2643
 7847SOL     OW24734   1.342   6.222   7.636  0.3404 -0.3347  0.3948
 7847SOL    HW124735   1.282   6.260   7.571  0.2857 -0.0550  0.6102
 7847SOL    HW224736   1.284   6.193   7.707  0.4219 -0.4595  0.4112
 7848SOL     OW24737   4.933   6.879   2.163  0.2496 -0.3596 -0.1819
 7848SOL    HW124738   4.952   6.840   2.077  1.5410 -2.4525  0.9556
 7848SOL    HW224739   5.010   6.857   2.216 -1.2108 -0.5695  1.9444
 7849SOL     OW24740   7.238   5.843   8.373 -0.0929  0.5152  0.0185
 7849SOL    HW124741   7.257   5.936   8.362 -0.9091  0.7535  0.4824
 7849SOL    HW224742   7.212   5.834   8.464 -2.6103  0.3529 -0.6309
 7850SOL     OW24743   3.317   4.156   3.644  0.4858 -0.0954  0.4407
 7850SOL    HW124744   3.314   4.064   3.671  2.0518 -0.1847  0.4213
 7850SOL    HW224745   3.227   4.186   3.651  0.1780 -1.2369  1.8722
 7851SOL     OW24746   8.360   1.902   0.238 -0.0771 -0.0358  0.2287
 7851SOL    HW124747   8.309   1.885   0.159  1.1468 -0.1984 -0.5415
 7851SOL    HW224748   8.351   1.823   0.290  0.8879 -0.8034 -0.7417
 7852SOL     OW24749   0.774   3.445   1.293 -0.2254 -0.0902  0.1170
 7852SOL    HW124750   0.752   3.390   1.218 -0.4843  0.9895 -0.6354
 7852SOL    HW224751   0.732   3.402   1.368  1.9196 -2.4280  0.0836
 7853SOL     OW24752   4.614   5.162   2.459  0.4709 -0.2853  0.3720
 7853SOL    HW124753   4.528   5.171   2.419 -0.0466 -0.2145  1.4838
 7853SOL    HW224754   4.607   5.208   2.542  1.5497 -0.3725  0.5241
 7854SOL     OW24755   4.538   4.049   2.466 -0.1261 -0.2050 -0.1956
 7854SOL    HW124756   4.529   4.142   2.486 -0.5724  0.0607 -1.5308
 7854SOL    HW224757   4.498   4.039   2.380 -1.1798 -1.8661  0.4436
 7855SOL     OW24758   4.346   6.172   0.759  0.7091  0.0223  0.0963
 7855SOL    HW124759   4.378   6.242   0.702  0.6239  0.5110  0.6424
 7855SOL    HW224760   4.307   6.217   0.833 -1.5613 -0.5514 -0.6853
 7856SOL     OW24761   3.991   7.509   7.556  0.3707  0.2334 -0.6306
 7856SOL    HW124762   4.061   7.448   7.535  0.4804 -0.0743  0.5561
 7856SOL    HW224763   4.021   7.553   7.636 -0.2008  1.0392 -0.8562
 7857SOL     OW24764   2.444   1.516   0.662  0.1474  0.1092 -0.4057
 7857SOL    HW124765   2.510   1.586   0.657  0.9924 -0.6810 -0.5945
 7857SOL    HW224766   2.495   1.435   0.658 -0.7811 -0.5249  0.2870
 7858SOL     OW24767   6.460   8.213   3.186 -0.0168  0.1006 -0.0455
 7858SOL    HW124768   6.419   8.299   3.175 -0.9863 -0.1596  1.2916
 7858SOL    HW224769   6.386   8.151   3.185  0.6690 -0.7434 -1.0709
 7859SOL     OW24770   7.362   6.098   3.512  0.2233 -0.1425  0.5354
 7859SOL    HW124771   7.336   6.190   3.518 -0.0932 -0.1916 -0.0330
 7859SOL    HW224772   7.279   6.051   3.507  0.3993 -0.3858 -0.1551
 7860SOL     OW24773   6.350   7.874   6.948 -0.1952  0.3120 -0.0045
 7860SOL    HW124774   6.417   7.941   6.930 -0.6518  0.7453 -0.1305
 7860SOL    HW224775   6.376   7.837   7.032 -0.0837  0.8417  0.2011
 7861SOL     OW24776   0.412   8.575   7.029 -0.3878 -0.1570 -0.7746
 7861SOL    HW124777   0.328   8.548   6.991 -0.8344 -1.1202  0.7956
 7861SOL    HW224778   0.407   8.671   7.033 -1.5017 -0.2096 -0.5353
 7862SOL     OW24779   1.944   0.533   7.609 -0.3238 -0.3000 -0.5181
 7862SOL    HW124780   1.884   0.603   7.636 -0.2928  0.0593 -1.3535
 7862SOL    HW224781   2.017   0.540   7.671  0.8494  2.0179 -2.0111
 7863SOL     OW24782   3.981   4.877   3.974 -0.2074  0.2238  0.4413
 7863SOL    HW124783   4.037   4.805   3.943 -1.5044 -1.9370  2.6453
 7863SOL    HW224784   3.892   4.843   3.965 -0.9560  2.1439  0.2985
 7864SOL     OW24785   2.653   4.276   4.153  0.3255  0.4810  0.2443
 7864SOL    HW124786   2.562   4.251   4.141  0.2420  0.9810 -0.2046
 7864SOL    HW224787   2.651   4.370   4.170  0.5930  0.1264  2.4899
 7865SOL     OW24788   2.438   8.144   4.576  0.4672  0.4946 -0.9157
 7865SOL    HW124789   2.357   8.105   4.543  0.6373  0.1972 -0.9877
 7865SOL    HW224790   2.508   8.092   4.537  0.6926  0.6819 -0.7695
 7866SOL     OW24791   4.302   3.857   0.641  0.1319 -0.3095  0.3407
 7866SOL    HW124792   4.215   3.839   0.606 -0.1549  0.4816  0.6256
 7866SOL    HW224793   4.302   3.951   0.660  0.9310 -0.3619  0.6579
 7867SOL     OW24794   7.911   7.392   6.660  0.5261 -0.0681  0.9061
 7867SOL    HW124795   7.970   7.349   6.598 -0.0479 -0.0185  0.3105
 7867SOL    HW224796   7.824   7.361   6.635  0.2930 -0.1073  1.7484
 7868SOL     OW24797   4.156   8.214   5.865 -0.1761 -0.5331  0.2025
 7868SOL    HW124798   4.244   8.222   5.903 -1.0435  1.7076  2.0007
 7868SOL    HW224799   4.129   8.125   5.887  2.0461 -1.7493 -1.5183
 7869SOL     OW24800   0.450   8.062   5.701 -0.3149  0.2335 -0.3332
 7869SOL    HW124801   0.355   8.047   5.707 -0.2378 -0.1410 -0.0426
 7869SOL    HW224802   0.486   7.979   5.671  0.0883 -0.1196  1.0477
 7870SOL     OW24803   0.475   4.438   2.203  0.2316  0.0272 -0.9732
 7870SOL    HW124804   0.529   4.504   2.160 -1.5336  1.6518 -0.8308
 7870SOL    HW224805   0.455   4.374   2.134  0.9966  0.2685 -1.4198
 7871SOL     OW24806   7.997   7.018   3.307 -0.5681  0.4396 -0.0520
 7871SOL    HW124807   8.049   7.002   3.386  0.5097  2.1351 -0.3661
 7871SOL    HW224808   8.017   6.943   3.250 -1.6775 -1.0181  1.3734
 7872SOL     OW24809   5.384   6.821   6.808 -0.2854  0.0914 -0.1375
 7872SOL    HW124810   5.351   6.895   6.859  1.8017  0.6077  0.5337
 7872SOL    HW224811   5.338   6.745   6.843  1.4844  0.3340  3.0099
 7873SOL     OW24812   2.112   4.454   8.094 -0.2883  0.1214  0.0631
 7873SOL    HW124813   2.085   4.516   8.026  1.5314  0.3995 -0.4608
 7873SOL    HW224814   2.098   4.368   8.054  1.5648  0.2849 -1.0759
 7874SOL     OW24815   8.573   5.742   1.587  0.0044  0.1939 -0.4135
 7874SOL    HW124816   8.572   5.738   1.492 -5.2599 -0.1575 -0.6398
 7874SOL    HW224817   8.547   5.654   1.615 -1.3716  1.0113  1.0834
 7875SOL     OW24818   8.081   0.268   6.480 -0.2131 -0.5492  0.2435
 7875SOL    HW124819   8.130   0.262   6.562 -0.5999 -1.7011  0.3991
 7875SOL    HW224820   8.061   0.362   6.472 -0.5345 -0.4606  1.6824
 7876SOL     OW24821   4.534   5.230   2.714  0.5231  0.3320  0.0929
 7876SOL    HW124822   4.468   5.235   2.783  0.3806 -0.1311 -0.0046
 7876SOL    HW224823   4.603   5.290   2.743 -0.2359  1.3457 -0.1451
 7877SOL     OW24824   1.249   0.975   0.213  0.9695  0.3805 -0.2229
 7877SOL    HW124825   1.167   0.937   0.182  0.6039  0.1591  0.9583
 7877SOL    HW224826   1.257   0.943   0.303  2.8371 -0.3774 -0.6127
 7878SOL     OW24827   2.423   5.426   0.414  0.3643  0.3816  0.5150
 7878SOL    HW124828   2.512   5.458   0.431  0.5155 -0.3789  1.2287
 7878SOL    HW224829   2.375   5.442   0.495  0.9265 -2.7277  1.5883
 7879SOL     OW24830   6.900   3.818   5.275  0.2661 -0.0220 -0.0570
 7879SOL    HW124831   6.939   3.744   5.228 -0.1223 -0.0098 -0.4062
 7879SOL    HW224832   6.909   3.794   5.368  0.0625 -0.5500 -0.1672
 7880SOL     OW24833   8.143   5.859   2.030 -0.1212  0.0747 -0.6595
 7880SOL    HW124834   8.075   5.830   2.091 -0.8039  2.5543 -0.1320
 7880SOL    HW224835   8.209   5.900   2.085 -0.4738  1.8613 -1.5055
 7881SOL     OW24836   2.277   5.347   2.654 -0.3508  0.1061  0.3146
 7881SOL    HW124837   2.285   5.404   2.731 -3.3333  1.0888  0.0169
 7881SOL    HW224838   2.368   5.332   2.626  0.8555 -0.0592  3.7894
 7882SOL     OW24839   2.765   0.212   2.433  0.6665 -0.9194 -0.1632
 7882SOL    HW124840   2.670   0.201   2.441  0.1338  1.6213 -1.6884
 7882SOL    HW224841   2.800   0.124   2.438 -1.9633 -2.1543 -1.5944
 7883SOL     OW24842   4.599   2.784   1.035 -0.0857  0.1921  0.1106
 7883SOL    HW124843   4.587   2.777   1.130  1.0668  0.8268  0.3271
 7883SOL    HW224844   4.546   2.860   1.011 -2.9753 -1.8197 -0.3203
 7884SOL     OW24845   6.954   5.851   1.699  0.1265 -0.2539  0.3697
 7884SOL    HW124846   6.896   5.777   1.681  0.9329 -0.8384  0.1488
 7884SOL    HW224847   6.994   5.872   1.615 -0.9254  1.1710  0.1870
 7885SOL     OW24848   5.319   5.159   3.260  0.2212  0.2713 -0.7778
 7885SOL    HW124849   5.278   5.242   3.237  0.8736  0.6420 -0.6042
 7885SOL    HW224850   5.405   5.182   3.294 -0.7060 -0.2263  2.1936
 7886SOL     OW24851   3.728   2.579   7.316  0.1555 -0.0576  0.4248
 7886SOL    HW124852   3.789   2.566   7.389  0.1073 -2.0998  0.1511
 7886SOL    HW224853   3.651   2.528   7.339 -0.3501  0.2636 -0.5034
 7887SOL     OW24854   1.280   5.664   6.103 -0.1411  0.8249 -0.1003
 7887SOL    HW124855   1.268   5.589   6.045  0.2680  1.4668 -1.0360
 7887SOL    HW224856   1.239   5.737   6.057  0.5367  1.4266  0.2315
 7888SOL     OW24857   6.856   3.730   5.840  0.4110  0.3341  0.4548
 7888SOL    HW124858   6.869   3.825   5.834  0.8962  0.4288  2.3622
 7888SOL    HW224859   6.768   3.720   5.875  0.4070  0.0735  0.3714
 7889SOL     OW24860   8.604   7.015   4.030 -0.1297 -0.3395  0.0972
 7889SOL    HW124861   8.592   6.924   4.055  0.0502 -0.0295  1.3902
 7889SOL    HW224862   8.538   7.062   4.082  2.7930  0.7807  3.1280
 7890SOL     OW24863   4.718   4.224   6.346 -0.6609 -0.1820 -0.3381
 7890SOL    HW124864   4.674   4.141   6.365  0.4902 -0.9195 -0.7804
 7890SOL    HW224865   4.709   4.235   6.251 -0.7685  0.1740 -0.2883
 7891SOL     OW24866   3.783   1.155   3.389  0.2777 -0.0283  0.9599
 7891SOL    HW124867   3.855   1.158   3.451 -0.1746  1.9580  1.4767
 7891SOL    HW224868   3.763   1.062   3.379  1.9438 -0.5285  1.8988
 7892SOL     OW24869   5.373   5.736   6.822 -0.0064 -0.3383  0.1967
 7892SOL    HW124870   5.460   5.772   6.839  0.0416 -0.6143  0.5596
 7892SOL    HW224871   5.312   5.806   6.846  0.1199 -0.0851 -0.2182
 7893SOL     OW24872   6.607   0.532   4.868  0.6536  0.3721 -0.5388
 7893SOL    HW124873   6.657   0.451   4.878  1.0730  0.6262 -0.5570
 7893SOL    HW224874   6.673   0.601   4.862  0.2839  0.8419  0.5286
 7894SOL     OW24875   0.460   1.452   3.893 -0.1829  0.1683 -0.2043
 7894SOL    HW124876   0.494   1.373   3.934  0.3641  0.0559 -0.8519
 7894SOL    HW224877   0.380   1.425   3.849 -0.8886  0.3359  0.9569
 7895SOL     OW24878   0.705   6.763   1.624 -0.1782  0.3379  0.2699
 7895SOL    HW124879   0.732   6.672   1.613  0.9174  0.6948 -0.1808
 7895SOL    HW224880   0.748   6.792   1.705 -0.4687  0.4766  0.3775
 7896SOL     OW24881   2.965   0.846   0.712  0.7820 -0.2843 -0.2521
 7896SOL    HW124882   2.978   0.931   0.670 -3.1080  0.6820  0.1633
 7896SOL    HW224883   2.994   0.782   0.646  2.5892  1.2882 -1.0625
 7897SOL     OW24884   7.938   8.497   5.922  0.2312 -0.2277 -0.0697
 7897SOL    HW124885   7.963   8.506   5.830  0.1225 -1.7621 -0.2800
 7897SOL    HW224886   7.998   8.555   5.969  0.4398  0.3990 -1.0780
 7898SOL     OW24887   5.992   5.533   8.083  0.1278  0.2930 -0.1479
 7898SOL    HW124888   5.928   5.592   8.044 -0.9194 -0.6154  0.1245
 7898SOL    HW224889   6.076   5.562   8.049 -0.5399  0.8586 -1.3767
 7899SOL     OW24890   6.336   0.593   7.347 -0.0064  0.0632  0.6607
 7899SOL    HW124891   6.383   0.654   7.290  1.4017 -1.4870  0.0635
 7899SOL    HW224892   6.365   0.506   7.318 -0.7278 -0.8409  2.4850
 7900SOL     OW24893   5.851   7.914   4.361 -0.5136 -0.3386  0.4371
 7900SOL    HW124894   5.825   7.953   4.277 -1.7502 -0.0372  0.9403
 7900SOL    HW224895   5.947   7.913   4.358 -0.4666 -2.7562 -2.0912
 7901SOL     OW24896   0.620   5.373   7.866 -0.1833 -0.0811  0.0058
 7901SOL    HW124897   0.565   5.451   7.856 -0.4980 -0.3047 -0.0160
 7901SOL    HW224898   0.703   5.398   7.826 -0.1712  0.3569  0.2928
 7902SOL     OW24899   0.271   1.618   8.076  0.9803 -0.1143 -0.0066
 7902SOL    HW124900   0.203   1.595   8.139 -0.1523 -0.1880 -1.2201
 7902SOL    HW224901   0.328   1.679   8.124  0.4727 -0.5823  1.2435
 7903SOL     OW24902   7.092   7.028   0.462  0.1114 -0.1129 -0.0528
 7903SOL    HW124903   7.011   7.032   0.512 -0.7447  1.8118 -1.4627
 7903SOL    HW224904   7.127   7.117   0.465 -0.5559  0.4216 -3.6286
 7904SOL     OW24905   5.239   1.703   6.271  0.0475 -0.1178  0.1967
 7904SOL    HW124906   5.252   1.676   6.362  1.7696 -0.0462  0.0044
 7904SOL    HW224907   5.209   1.793   6.277  0.4970  0.0096  0.7089
 7905SOL     OW24908   0.863   7.688   4.247 -0.0002  0.3331  0.4217
 7905SOL    HW124909   0.915   7.608   4.242  0.4380  0.6324  0.0912
 7905SOL    HW224910   0.774   7.661   4.225  0.1952 -0.0075  0.0440
 7906SOL     OW24911   2.532   3.699   5.918  0.0440  0.4494 -0.2548
 7906SOL    HW124912   2.455   3.693   5.975  0.9570  1.7114  1.1963
 7906SOL    HW224913   2.594   3.636   5.954 -0.2666 -0.5592 -1.4150
 7907SOL     OW24914   1.647   5.781   4.708  0.8823 -0.1548  0.0074
 7907SOL    HW124915   1.648   5.825   4.623 -0.4692 -0.5242 -0.2262
 7907SOL    HW224916   1.638   5.688   4.687 -1.5271 -0.1093  0.5285
 7908SOL     OW24917   6.939   4.871   4.666  0.1879 -0.0591 -0.0065
 7908SOL    HW124918   6.873   4.809   4.698 -2.4208  2.0925 -0.9049
 7908SOL    HW224919   6.966   4.836   4.581  0.8548 -1.3644  0.7088
 7909SOL     OW24920   4.531   7.953   6.257 -0.2510  0.1145  0.2773
 7909SOL    HW124921   4.439   7.958   6.229 -0.8296 -2.6244  1.4063
 7909SOL    HW224922   4.563   7.871   6.221  1.1697  0.0885  1.5014
 7910SOL     OW24923   0.250   3.478   7.274 -0.7931  0.2655 -0.5056
 7910SOL    HW124924   0.271   3.496   7.365 -2.3430 -2.1959  0.4545
 7910SOL    HW224925   0.285   3.390   7.258 -3.8701 -0.9856 -0.9968
 7911SOL     OW24926   4.897   0.000   5.131 -0.7567 -0.0910  0.2601
 7911SOL    HW124927   4.983   0.004   5.090 -1.5155 -0.4670 -1.4343
 7911SOL    HW224928   4.850  -0.069   5.084 -2.5675  1.2698 -0.0650
 7912SOL     OW24929   2.260   1.803   4.793 -0.2372 -0.3255  0.0667
 7912SOL    HW124930   2.339   1.848   4.822  0.5490 -1.2176 -0.6450
 7912SOL    HW224931   2.190   1.867   4.806  0.5695  0.4346  0.8229
 7913SOL     OW24932   6.234   4.595   6.862  0.0052 -0.2869 -0.5473
 7913SOL    HW124933   6.264   4.568   6.775  1.3352 -0.2471 -0.1289
 7913SOL    HW224934   6.140   4.604   6.853  0.2927  1.3918 -2.4456
 7914SOL     OW24935   0.536   1.020   0.589 -0.3899 -0.1109  0.2058
 7914SOL    HW124936   0.517   1.044   0.680  0.7267 -0.0499  0.4360
 7914SOL    HW224937   0.631   1.013   0.585 -0.2741  1.6235 -1.3955
 7915SOL     OW24938   4.013   2.354   7.689  0.1495  0.5533  0.0044
 7915SOL    HW124939   4.083   2.289   7.689 -0.6086 -0.2896 -0.6890
 7915SOL    HW224940   4.005   2.381   7.780  1.2003  0.4771  0.1281
 7916SOL     OW24941   1.067   1.079   3.020 -0.4055 -0.0222  0.0941
 7916SOL    HW124942   0.986   1.119   3.052 -0.3324  0.5150 -0.3793
 7916SOL    HW224943   1.088   1.128   2.941  0.7176  0.2582  0.5460
 7917SOL     OW24944   0.971   4.764   4.958 -0.6482  0.0446  0.1555
 7917SOL    HW124945   0.954   4.743   4.866 -0.3866 -1.5885  0.4398
 7917SOL    HW224946   1.027   4.841   4.955  0.4164 -0.7194 -1.1375
 7918SOL     OW24947   1.869   1.329   8.106 -0.0923 -0.8218 -0.0811
 7918SOL    HW124948   1.842   1.273   8.180  0.4661  0.7935  1.4229
 7918SOL    HW224949   1.951   1.370   8.135 -0.6668  1.0584 -0.9340
 7919SOL     OW24950   1.561   1.380   5.341  0.4608 -0.4076  0.3647
 7919SOL    HW124951   1.489   1.434   5.308 -0.3432 -1.3145  0.5884
 7919SOL    HW224952   1.528   1.342   5.422  1.9922  0.8444  1.6344
 7920SOL     OW24953   3.786   7.286   4.370  0.4251 -0.2759 -0.4311
 7920SOL    HW124954   3.853   7.354   4.369 -0.0722  0.2117 -0.9387
 7920SOL    HW224955   3.818   7.222   4.434 -0.0111  1.3314  1.4775
 7921SOL     OW24956   7.126   6.902   3.120  0.4167  0.0774  0.3924
 7921SOL    HW124957   7.216   6.885   3.148  0.7354  0.8523 -0.1287
 7921SOL    HW224958   7.118   6.997   3.121 -0.2340  0.0348 -0.0822
 7922SOL     OW24959   6.138   7.333   6.195 -0.1637  0.3680 -0.7177
 7922SOL    HW124960   6.070   7.279   6.237  1.0907 -0.1958  0.7104
 7922SOL    HW224961   6.090   7.403   6.152 -1.6453  0.1929  0.5458
 7923SOL     OW24962   6.627   5.997   4.216 -0.2298 -0.0209 -0.0514
 7923SOL    HW124963   6.653   5.973   4.305  2.1754  0.3745 -0.5728
 7923SOL    HW224964   6.611   5.913   4.172  3.5362 -0.6697 -0.5628
 7924SOL     OW24965   0.639   6.274   3.367 -0.2534 -0.3413  0.4876
 7924SOL    HW124966   0.635   6.198   3.309 -1.4419 -0.7939  1.1186
 7924SOL    HW224967   0.643   6.349   3.307  0.9994 -0.8770 -0.1408
 7925SOL     OW24968   2.821   0.619   7.981  0.0740 -0.6519  0.3169
 7925SOL    HW124969   2.771   0.674   8.041  1.6154  0.7313  0.4128
 7925SOL    HW224970   2.871   0.681   7.928 -0.1950 -1.8933 -1.4781
 7926SOL     OW24971   5.907   6.416   1.768  0.2586 -0.2422  0.1567
 7926SOL    HW124972   5.944   6.332   1.795  0.1085 -0.6596 -0.8787
 7926SOL    HW224973   5.978   6.459   1.720 -0.4629 -0.9357 -1.6160
 7927SOL     OW24974   3.073   1.167   4.320 -0.1002 -0.1204 -0.2026
 7927SOL    HW124975   3.001   1.215   4.361 -0.8220 -1.5032  0.2008
 7927SOL    HW224976   3.106   1.227   4.253 -2.2038  0.2290 -1.0044
 7928SOL     OW24977   6.678   7.987   3.402  0.0673 -0.0157  0.1764
 7928SOL    HW124978   6.632   7.951   3.327 -0.9153  0.2741  0.6225
 7928SOL    HW224979   6.626   7.960   3.478  0.2832  0.8252  0.6419
 7929SOL     OW24980   0.511   5.322   8.523  0.4261  0.4824  0.2409
 7929SOL    HW124981   0.506   5.398   8.464 -0.1594  1.1048  1.0691
 7929SOL    HW224982   0.480   5.355   8.607 -1.0840 -0.9934  0.3221
 7930SOL     OW24983   1.619   4.333   6.448 -0.1371 -0.3567 -0.2288
 7930SOL    HW124984   1.698   4.365   6.491 -0.9725  1.7556 -0.1467
 7930SOL    HW224985   1.650   4.273   6.380  1.4790 -0.0536  0.2227
 7931SOL     OW24986   3.462   5.513   7.161 -0.1815 -0.2294 -0.0259
 7931SOL    HW124987   3.445   5.606   7.144  2.3075  0.0316 -1.4653
 7931SOL    HW224988   3.524   5.513   7.233  0.1392 -0.7527 -0.2990
 7932SOL     OW24989   4.470   0.132   7.335 -0.3547 -0.1746  0.2546
 7932SOL    HW124990   4.509   0.072   7.398 -1.5186 -1.4302 -0.1883
 7932SOL    HW224991   4.401   0.082   7.293 -1.3516  1.4733 -0.1576
 7933SOL     OW24992   5.379   3.383   4.226  0.3467  0.3609 -0.0447
 7933SOL    HW124993   5.424   3.360   4.145 -0.9634 -0.8779 -0.4531
 7933SOL    HW224994   5.380   3.303   4.279 -0.8013  0.4828  0.1901
 7934SOL     OW24995   7.962   3.119   2.260  0.3133 -0.1473  0.2391
 7934SOL    HW124996   7.960   3.208   2.225  0.6222 -0.4964 -0.7005
 7934SOL    HW224997   7.871   3.097   2.277  0.2588  0.4573  0.7916
 7935SOL     OW24998   2.986   5.241   0.259  0.1831 -0.1822  0.8455
 7935SOL    HW124999   3.060   5.183   0.277  0.0235 -1.2664 -1.5955
 7935SOL    HW225000   2.913   5.202   0.306 -0.3482 -3.1787 -2.0945
 7936SOL     OW25001   8.230   4.204   1.955  0.4193  0.2164  0.0033
 7936SOL    HW125002   8.219   4.131   1.894 -0.4404 -0.3532  0.8072
 7936SOL    HW225003   8.289   4.171   2.022  0.9556  0.6672 -0.2371
 7937SOL     OW25004   0.393   6.303   3.956 -0.4883  0.3429 -0.7446
 7937SOL    HW125005   0.453   6.268   3.890 -0.3011 -0.6820 -0.0650
 7937SOL    HW225006   0.306   6.277   3.924 -0.3393 -0.9484 -0.1619
 7938SOL     OW25007   4.384   5.878   4.834 -0.0078 -0.3765 -0.4177
 7938SOL    HW125008   4.314   5.939   4.807 -2.4259 -2.6618  0.2907
 7938SOL    HW225009   4.445   5.932   4.884 -1.0529  1.8017 -1.3540
 7939SOL     OW25010   0.334   7.971   6.948 -0.1709  0.0396  0.3154
 7939SOL    HW125011   0.297   8.057   6.929  0.7902  0.6601  1.0693
 7939SOL    HW225012   0.346   7.930   6.863 -0.5004  0.7256 -0.0692
 7940SOL     OW25013   2.059   8.297   6.390 -0.5190 -0.3152  0.3059
 7940SOL    HW125014   1.990   8.293   6.324  0.5092 -3.1517 -0.7266
 7940SOL    HW225015   2.140   8.285   6.340  0.5820  0.7159  1.7510
 7941SOL     OW25016   5.543   3.338   8.164  0.3171  0.2149 -0.3092
 7941SOL    HW125017   5.590   3.405   8.115  0.5936 -0.3232 -0.7875
 7941SOL    HW225018   5.458   3.331   8.120 -0.6616  1.9210  1.1746
 7942SOL     OW25019   2.751   0.319   8.249  0.4952  0.3643 -0.3458
 7942SOL    HW125020   2.814   0.248   8.243 -0.6510 -0.7665  0.4107
 7942SOL    HW225021   2.801   0.398   8.228  1.5742 -0.7469 -2.2513
 7943SOL     OW25022   3.173   4.571   5.507  0.2861 -0.0650 -0.5352
 7943SOL    HW125023   3.114   4.529   5.443  0.3638 -1.6855  0.4141
 7943SOL    HW225024   3.135   4.549   5.592  0.9237  0.9631  0.0323
 7944SOL     OW25025   4.434   3.070   3.073  0.4401  0.0583 -0.0165
 7944SOL    HW125026   4.380   3.052   2.996 -1.1184  1.9673  0.5335
 7944SOL    HW225027   4.392   3.020   3.143  0.3759  0.2222  0.0643
 7945SOL     OW25028   3.318   5.775   4.775 -0.1404 -0.0573  0.3558
 7945SOL    HW125029   3.264   5.719   4.719 -1.0083 -0.7979  1.8815
 7945SOL    HW225030   3.258   5.843   4.806  0.2536  0.1433  0.6874
 7946SOL     OW25031   4.685   4.699   6.006  0.1973  0.4307  0.3121
 7946SOL    HW125032   4.652   4.629   6.062 -1.5341  1.1570  0.2576
 7946SOL    HW225033   4.678   4.779   6.059  1.5621  0.6746  0.1618
 7947SOL     OW25034   2.730   6.099   1.648 -0.2217 -0.4818 -0.3747
 7947SOL    HW125035   2.666   6.158   1.689  0.3128 -0.0372 -0.1772
 7947SOL    HW225036   2.691   6.077   1.563 -0.2485  0.4713 -0.6177
 7948SOL     OW25037   3.750   1.171   1.937 -0.1799  0.7163  0.4094
 7948SOL    HW125038   3.727   1.246   1.991  0.8974  0.6299  1.0147
 7948SOL    HW225039   3.843   1.159   1.951 -0.3140 -0.6720  0.2381
 7949SOL     OW25040   6.063   3.457   1.703  0.0380 -0.6410  0.1544
 7949SOL    HW125041   6.028   3.539   1.737  0.0929  0.5498 -2.4105
 7949SOL    HW225042   6.149   3.448   1.745 -0.4914 -0.0835  1.4119
 7950SOL     OW25043   5.024   5.104   4.799  0.2593  0.2546 -0.2780
 7950SOL    HW125044   5.023   5.077   4.891 -0.0799  1.7015  0.1652
 7950SOL    HW225045   5.060   5.029   4.753 -1.5638 -1.3538  0.7624
 7951SOL     OW25046   2.193   1.882   1.622 -0.2300  0.3997  0.4970
 7951SOL    HW125047   2.212   1.954   1.562 -2.5300  1.3565  0.8036
 7951SOL    HW225048   2.225   1.804   1.577  1.2784  1.4614 -0.3576
 7952SOL     OW25049   5.662   3.044   6.875 -0.1383  0.5544 -0.0126
 7952SOL    HW125050   5.657   3.033   6.780 -1.2029  0.6845  0.0163
 7952SOL    HW225051   5.572   3.037   6.905  0.2954 -0.6572  1.1400
 7953SOL     OW25052   4.966   6.854   5.438 -0.3725 -0.3658  0.1349
 7953SOL    HW125053   5.002   6.803   5.365 -0.2137  0.1334 -0.1402
 7953SOL    HW225054   5.020   6.831   5.513  1.2773  1.2144 -0.5074
 7954SOL     OW25055   2.683   5.166   6.967 -0.0704 -0.4639 -0.4771
 7954SOL    HW125056   2.647   5.085   6.932 -0.9157 -0.4023  0.2269
 7954SOL    HW225057   2.684   5.226   6.892  1.0934 -1.2791 -1.1426
 7955SOL     OW25058   3.462   2.866   5.654  0.4158 -0.3460  0.0389
 7955SOL    HW125059   3.392   2.817   5.609 -0.6404  1.2438 -0.1047
 7955SOL    HW225060   3.453   2.955   5.621  1.5216  0.2148  1.2210
 7956SOL     OW25061   7.930   0.709   5.829  0.0615  0.3445 -0.0399
 7956SOL    HW125062   7.953   0.802   5.836 -0.2192  0.4304 -0.2935
 7956SOL    HW225063   7.926   0.691   5.735  0.0477  0.0918  0.0076
 7957SOL     OW25064   4.992   4.530   6.971  0.3699  0.5094  0.1306
 7957SOL    HW125065   5.002   4.480   6.890  0.6766 -0.4352  0.7314
 7957SOL    HW225066   5.006   4.466   7.040  0.4486  1.3719  0.9322
 7958SOL     OW25067   0.441   0.609   4.936 -0.4190 -0.0020  0.5966
 7958SOL    HW125068   0.530   0.579   4.957 -0.7627 -1.0662  0.5730
 7958SOL    HW225069   0.401   0.535   4.890 -0.1033  1.7666 -2.8388
 7959SOL     OW25070   3.673   8.462   2.600  0.3459  0.0148 -0.2283
 7959SOL    HW125071   3.672   8.495   2.690  2.7334  0.8353 -0.4143
 7959SOL    HW225072   3.710   8.374   2.607 -0.6132 -0.4107 -0.3180
 7960SOL     OW25073   7.120   4.752   7.408 -0.1043  0.4980  0.3684
 7960SOL    HW125074   7.210   4.759   7.378  0.0333  0.0029  0.6441
 7960SOL    HW225075   7.124   4.765   7.502 -0.0057 -1.5925  0.7090
 7961SOL     OW25076   2.083   8.506   7.173 -0.4758 -0.8366 -0.7535
 7961SOL    HW125077   2.089   8.488   7.079  1.3397  0.5746 -0.9619
 7961SOL    HW225078   2.173   8.504   7.204 -1.0668 -1.6020  1.0621
 7962SOL     OW25079   3.702   6.739   0.568 -0.0043 -0.1489  0.6698
 7962SOL    HW125080   3.763   6.742   0.641  1.9959 -0.9978 -0.8544
 7962SOL    HW225081   3.671   6.648   0.566  0.5435 -0.3337  0.0453
 7963SOL     OW25082   8.004   5.106   1.908 -0.4674 -0.2294  0.7151
 7963SOL    HW125083   7.989   5.190   1.864 -0.4466 -0.2028  0.7590
 7963SOL    HW225084   8.051   5.129   1.988 -1.2491 -0.1831  1.1725
 7964SOL     OW25085   6.884   3.866   0.029  0.0882 -0.3277 -0.2203
 7964SOL    HW125086   6.933   3.948   0.020 -0.1718 -0.0898  0.4246
 7964SOL    HW225087   6.951   3.797   0.022  0.2100 -0.0961 -1.4511
 7965SOL     OW25088   2.285   0.812   6.255  0.1941  0.4213 -0.0216
 7965SOL    HW125089   2.212   0.840   6.311 -1.4067 -0.2010 -1.6966
 7965SOL    HW225090   2.300   0.886   6.197 -0.2864 -0.0722 -0.7950
 7966SOL     OW25091   1.122   0.354   4.196  0.1931 -0.2088 -0.3204
 7966SOL    HW125092   1.156   0.365   4.107  0.4866 -0.6896 -0.2698
 7966SOL    HW225093   1.059   0.425   4.206  0.3013 -0.0329 -0.8445
 7967SOL     OW25094   5.166   3.737   6.213  0.1204 -0.7602 -0.0630
 7967SOL    HW125095   5.158   3.715   6.306  0.6867  3.9276  1.3712
 7967SOL    HW225096   5.088   3.790   6.194  0.9665 -0.0081 -1.6507
 7968SOL     OW25097   7.190   4.040   6.639 -0.3029 -0.0178 -0.5164
 7968SOL    HW125098   7.213   4.115   6.585 -0.8709 -0.0276 -0.7736
 7968SOL    HW225099   7.248   3.970   6.609  0.6761  0.4833  0.1591
 7969SOL     OW25100   7.797   5.931   2.100 -0.3420 -0.0576 -0.3567
 7969SOL    HW125101   7.794   5.845   2.057  1.3191  0.9495 -2.6616
 7969SOL    HW225102   7.731   5.983   2.054 -1.2688  0.0079  0.9655
 7970SOL     OW25103   7.432   4.609   3.694 -0.0682 -0.2612  0.8066
 7970SOL    HW125104   7.386   4.570   3.767 -2.5435  0.0269 -0.5055
 7970SOL    HW225105   7.365   4.622   3.627  2.2958 -1.8597 -2.1167
 7971SOL     OW25106   7.983   6.622   4.830  0.0519 -0.1171  0.0964
 7971SOL    HW125107   7.956   6.648   4.742  0.0870 -0.2860  0.0358
 7971SOL    HW225108   7.976   6.702   4.882 -0.4946 -0.1342  0.0627
 7972SOL     OW25109   0.763   7.708   8.315  0.4599 -0.0950 -0.2883
 7972SOL    HW125110   0.747   7.672   8.227  1.2205 -0.1891 -0.3954
 7972SOL    HW225111   0.813   7.788   8.298 -1.1467  0.9934 -0.0527
 7973SOL     OW25112   7.132   2.077   8.006 -0.7021  0.3495 -0.0826
 7973SOL    HW125113   7.067   2.102   7.941 -1.6852 -2.0071 -0.0935
 7973SOL    HW225114   7.207   2.046   7.955  0.1585  2.2001 -0.0539
 7974SOL     OW25115   3.885   0.746   1.298 -0.2124  0.6187 -0.1558
 7974SOL    HW125116   3.864   0.704   1.215 -0.9364  0.2484  0.2100
 7974SOL    HW225117   3.803   0.745   1.347 -0.2196  2.2826 -0.0576
 7975SOL     OW25118   4.103   0.369   6.263 -0.3200 -0.2190 -0.3478
 7975SOL    HW125119   4.047   0.298   6.296 -0.7594 -0.2433 -1.1287
 7975SOL    HW225120   4.190   0.330   6.259 -0.0157  0.0904  1.7648
 7976SOL     OW25121   3.569   3.018   3.934 -0.1841 -0.0454 -0.4038
 7976SOL    HW125122   3.513   2.987   3.863  0.2946  0.4300 -1.0018
 7976SOL    HW225123   3.512   3.022   4.010 -0.7251 -0.4744 -0.7832
 7977SOL     OW25124   6.853   8.002   5.612  0.2597  0.0649 -0.0866
 7977SOL    HW125125   6.868   7.980   5.705 -0.9100  0.9347  0.3261
 7977SOL    HW225126   6.759   7.989   5.600  0.4361 -0.2236 -1.2193
 7978SOL     OW25127   2.962   4.627   0.310 -0.0028 -0.1425  0.4559
 7978SOL    HW125128   2.916   4.585   0.238  2.7026 -0.3171 -1.2930
 7978SOL    HW225129   2.896   4.632   0.380 -1.9195 -2.6038 -0.9751
 7979SOL     OW25130   1.451   4.587   5.783  0.4255  0.6025 -0.0730
 7979SOL    HW125131   1.519   4.582   5.716 -0.1284  1.7086 -0.7499
 7979SOL    HW225132   1.369   4.576   5.734  0.1162 -1.3188  0.8075
 7980SOL     OW25133   4.201   5.413   4.756 -0.0959  0.0558 -0.2668
 7980SOL    HW125134   4.163   5.350   4.694 -1.2804  1.5323 -1.1226
 7980SOL    HW225135   4.250   5.474   4.701 -0.4989  0.9273  0.3281
 7981SOL     OW25136   6.439   3.530   0.725 -0.4287  0.2932  0.5926
 7981SOL    HW125137   6.344   3.529   0.734 -0.4609  1.0222  0.3578
 7981SOL    HW225138   6.466   3.615   0.759  0.0710  0.3738  0.0250
 7982SOL     OW25139   1.958   1.382   3.908  0.1791 -0.3217 -0.7477
 7982SOL    HW125140   1.864   1.391   3.921  0.3826  0.8349  0.1061
 7982SOL    HW225141   1.969   1.293   3.874 -1.1443 -0.7901 -0.0361
 7983SOL     OW25142   0.355   4.061   0.436  0.4840  0.0154 -0.0217
 7983SOL    HW125143   0.336   3.968   0.443 -2.6347  0.5470  0.0058
 7983SOL    HW225144   0.335   4.082   0.345 -0.2403  0.8854  0.3214
 7984SOL     OW25145   5.799   7.782   5.562 -0.0312 -0.2797 -0.4083
 7984SOL    HW125146   5.800   7.877   5.566 -0.5230 -0.2390 -1.1260
 7984SOL    HW225147   5.743   7.761   5.487  0.5404 -1.1224 -0.6157
 7985SOL     OW25148   3.391   5.783   6.062  0.1123 -0.1719  0.3534
 7985SOL    HW125149   3.481   5.792   6.095  0.3575 -0.2462 -0.2800
 7985SOL    HW225150   3.350   5.719   6.120  1.3177 -2.3028 -1.0286
 7986SOL     OW25151   4.161   5.829   1.480  0.1654  0.1525  0.7334
 7986SOL    HW125152   4.197   5.741   1.475  0.7143  0.4085 -0.1299
 7986SOL    HW225153   4.230   5.881   1.521 -0.3058  0.1114  1.5965
 7987SOL     OW25154   3.943   5.492   6.805 -0.2178  0.2476  0.1509
 7987SOL    HW125155   3.959   5.407   6.847  1.0159  0.6542  0.5419
 7987SOL    HW225156   3.894   5.470   6.726 -2.5343 -0.5570  1.7022
 7988SOL     OW25157   2.079   0.222   6.559 -0.1057 -0.2171 -0.0748
 7988SOL    HW125158   2.090   0.274   6.480 -0.5561  0.0386  0.0323
 7988SOL    HW225159   1.986   0.228   6.580 -0.2242 -1.3121 -0.2373
 7989SOL     OW25160   3.947   0.856   4.559  0.1409  0.8289 -0.1338
 7989SOL    HW125161   3.886   0.782   4.553  1.7218 -0.4633 -1.3533
 7989SOL    HW225162   3.894   0.933   4.542 -1.2400 -0.1907 -0.6161
 7990SOL     OW25163   0.892   0.198   1.224  0.0610 -0.1361  0.2473
 7990SOL    HW125164   0.986   0.186   1.239  0.0131 -2.3160 -0.8060
 7990SOL    HW225165   0.887   0.257   1.149  0.5081  1.6205  1.5442
 7991SOL     OW25166   1.944   3.679   2.147  0.3066  0.5124  0.2851
 7991SOL    HW125167   1.863   3.664   2.196  1.5639 -1.0669  2.0305
 7991SOL    HW225168   2.014   3.656   2.208  2.0265 -0.5093 -1.9002
 7992SOL     OW25169   1.913   7.206   0.809 -0.1806  0.0039 -0.0940
 7992SOL    HW125170   1.996   7.176   0.846 -0.1163  0.6030  0.2594
 7992SOL    HW225171   1.862   7.126   0.797 -0.1067 -0.2400  1.0645
 7993SOL     OW25172   6.914   6.873   5.476  0.4229 -0.5729 -0.9277
 7993SOL    HW125173   6.841   6.812   5.475 -2.0684  2.1618 -0.7972
 7993SOL    HW225174   6.915   6.908   5.565  1.4928 -0.1030 -1.1073
 7994SOL     OW25175   3.233   8.296   8.425 -0.1364 -0.5654 -0.5562
 7994SOL    HW125176   3.197   8.289   8.337  1.1499 -0.2543 -1.1359
 7994SOL    HW225177   3.159   8.321   8.479 -0.6559  0.8673 -1.8434
 7995SOL     OW25178   1.170   6.650   6.834  0.1744  0.0477 -0.0114
 7995SOL    HW125179   1.215   6.732   6.813 -2.1293  1.5993  0.8309
 7995SOL    HW225180   1.149   6.612   6.749  1.2536  0.3003 -0.4111
 7996SOL     OW25181   1.802   2.493   2.561 -0.1022  0.6176  0.2833
 7996SOL    HW125182   1.838   2.495   2.650  0.5283 -2.1123  0.1894
 7996SOL    HW225183   1.714   2.457   2.571 -0.2255  0.7941 -0.1439
 7997SOL     OW25184   5.905   5.734   3.698 -0.1929  0.6081  0.0802
 7997SOL    HW125185   5.823   5.691   3.722 -1.1824  3.4610  2.5605
 7997SOL    HW225186   5.965   5.714   3.770  0.7280 -0.0842 -0.8730
 7998SOL     OW25187   7.399   3.224   6.650 -0.2337  0.5152 -0.6264
 7998SOL    HW125188   7.401   3.135   6.618  0.8701  0.5087 -0.5751
 7998SOL    HW225189   7.340   3.270   6.591 -0.5493 -0.1666 -0.8481
 7999SOL     OW25190   0.447   2.533   1.890  0.8404  0.1888  0.0991
 7999SOL    HW125191   0.404   2.573   1.815 -1.1606 -1.2530  0.4021
 7999SOL    HW225192   0.411   2.445   1.895  3.5224 -0.9894  0.6954
 8000SOL     OW25193   6.548   3.964   3.502 -0.1871 -0.4638  0.6672
 8000SOL    HW125194   6.523   3.970   3.409 -1.9108 -0.4498  1.0883
 8000SOL    HW225195   6.604   3.886   3.507  0.9294  0.2278 -0.5684
 8001SOL     OW25196   6.228   8.048   3.216  0.1549  0.1520 -0.0043
 8001SOL    HW125197   6.193   8.046   3.127 -1.2890  1.6699  0.4832
 8001SOL    HW225198   6.153   8.028   3.271  1.2283 -1.6921  0.8786
 8002SOL     OW25199   2.666   0.699   8.500 -0.3345  0.0099 -0.3775
 8002SOL    HW125200   2.600   0.630   8.505 -1.0828  0.4622 -2.8163
 8002SOL    HW225201   2.633   0.760   8.434  1.8588  0.9775 -0.6682
 8003SOL     OW25202   5.276   5.928   8.381  0.0536 -0.0441  0.2575
 8003SOL    HW125203   5.257   5.942   8.474  2.1673 -0.9412  0.8857
 8003SOL    HW225204   5.240   5.841   8.362 -1.9719  0.8539 -0.3033
 8004SOL     OW25205   0.750   3.325   7.583  0.2331  0.8396 -0.0640
 8004SOL    HW125206   0.788   3.367   7.505 -1.5158  3.9238  0.5691
 8004SOL    HW225207   0.660   3.306   7.559  0.4365 -0.8451  0.3638
 8005SOL     OW25208   4.693   0.810   0.795  0.1284 -0.4099 -0.1569
 8005SOL    HW125209   4.659   0.889   0.837 -0.2367 -0.9199  0.5215
 8005SOL    HW225210   4.784   0.831   0.776  0.8360 -0.7509  2.4657
 8006SOL     OW25211   2.592   0.205   0.394 -0.1463 -0.0175  0.2821
 8006SOL    HW125212   2.549   0.135   0.443  0.8159 -1.0579 -0.3082
 8006SOL    HW225213   2.535   0.219   0.318  0.3120 -1.1244 -0.2990
 8007SOL     OW25214   3.804   2.188   4.906  0.4123 -0.2856  0.4644
 8007SOL    HW125215   3.714   2.218   4.923 -0.0869 -1.2641 -0.3462
 8007SOL    HW225216   3.859   2.259   4.938 -0.7052  1.4238 -1.1912
 8008SOL     OW25217   6.753   3.574   6.147  1.1978 -0.3588 -0.5723
 8008SOL    HW125218   6.810   3.650   6.135  1.0045 -0.0657  0.2498
 8008SOL    HW225219   6.710   3.562   6.063  1.1827  0.4883 -0.6940
 8009SOL     OW25220   0.095   3.101   4.844  0.0035 -0.0982  0.1554
 8009SOL    HW125221   0.160   3.117   4.776 -1.6978 -2.6418 -2.2750
 8009SOL    HW225222   0.060   3.188   4.864 -0.3647  0.7075 -3.3087
 8010SOL     OW25223   0.385   6.310   0.654 -0.7242  0.2644  0.2295
 8010SOL    HW125224   0.376   6.343   0.744  1.5175  0.1042  0.5642
 8010SOL    HW225225   0.340   6.225   0.656 -2.0008  0.9224  0.7676
 8011SOL     OW25226   5.627   3.158   7.433 -0.4793 -0.2920 -0.2694
 8011SOL    HW125227   5.616   3.213   7.355  0.6231  1.4697  0.7434
 8011SOL    HW225228   5.722   3.156   7.446 -0.6649 -0.3466  1.1645
 8012SOL     OW25229   5.255   6.577   3.737 -0.1433 -0.2267 -0.0489
 8012SOL    HW125230   5.179   6.565   3.794 -0.2204 -0.4660 -0.1977
 8012SOL    HW225231   5.331   6.558   3.793 -0.1449  0.8032  0.3157
 8013SOL     OW25232   0.605   2.734   2.745 -0.3015  0.0339 -0.0530
 8013SOL    HW125233   0.518   2.764   2.771 -0.6250 -0.1560 -0.8793
 8013SOL    HW225234   0.665   2.793   2.790 -0.8903  0.8533 -0.3208
 8014SOL     OW25235   8.260   2.791   3.312 -0.0237 -0.8076  0.1866
 8014SOL    HW125236   8.166   2.778   3.329 -0.0335 -1.1498 -0.1124
 8014SOL    HW225237   8.277   2.740   3.233  0.0307  0.6794 -0.8014
 8015SOL     OW25238   3.380   0.903   2.500  0.3947 -0.3871 -0.2703
 8015SOL    HW125239   3.391   0.987   2.545  1.6712  0.6597 -2.3960
 8015SOL    HW225240   3.452   0.849   2.532 -1.1937 -1.2594  2.1277
 8016SOL     OW25241   2.884   0.050   4.967  0.2047 -0.0984  0.7392
 8016SOL    HW125242   2.936   0.017   4.893  0.0401 -1.8771  1.3675
 8016SOL    HW225243   2.865   0.141   4.944  3.5919  0.6888  0.4652
 8017SOL     OW25244   1.089   3.094   6.331 -0.4953 -0.2336  0.4388
 8017SOL    HW125245   1.181   3.090   6.356 -0.7960  0.0263  1.6474
 8017SOL    HW225246   1.046   3.135   6.406 -1.9735 -2.5001  0.9009
 8018SOL     OW25247   2.686   4.196   4.667 -0.2781  0.2446  0.0258
 8018SOL    HW125248   2.680   4.264   4.599 -2.3541  0.2428  0.1548
 8018SOL    HW225249   2.778   4.199   4.695 -0.3691  3.3572  0.3994
 8019SOL     OW25250   1.991   6.998   6.440 -0.0956  0.7061 -0.0174
 8019SOL    HW125251   1.971   7.081   6.484  0.1723  0.8300 -0.1299
 8019SOL    HW225252   1.908   6.950   6.441 -0.4753  1.3265 -0.7136
 8020SOL     OW25253   0.821   5.571   4.541 -0.1675  0.3829 -0.0529
 8020SOL    HW125254   0.769   5.532   4.612 -0.3036  0.7185  0.0339
 8020SOL    HW225255   0.901   5.519   4.538 -0.0505  0.5261  0.5203
 8021SOL     OW25256   3.552   1.797   6.918  0.0484  0.0454 -0.2260
 8021SOL    HW125257   3.584   1.884   6.940 -0.5481  0.0398  0.7114
 8021SOL    HW225258   3.512   1.806   6.832 -0.5038  0.8267  0.1061
 8022SOL     OW25259   7.096   5.343   0.042 -0.5359  0.5453  0.0347
 8022SOL    HW125260   7.054   5.261   0.069  0.7412 -0.6161 -1.3518
 8022SOL    HW225261   7.152   5.367   0.115 -0.3794 -0.2212  0.1766
 8023SOL     OW25262   6.371   6.987   3.528  0.8189 -0.5621 -0.2298
 8023SOL    HW125263   6.375   7.073   3.569  0.3797 -1.2557  1.3256
 8023SOL    HW225264   6.410   7.001   3.441 -0.7175  1.5391 -0.6591
 8024SOL     OW25265   1.494   3.074   7.597  0.0569  0.6698 -0.0450
 8024SOL    HW125266   1.399   3.065   7.606 -0.3825  2.8917 -1.6555
 8024SOL    HW225267   1.520   2.999   7.543 -1.2555  1.4365 -1.8438
 8025SOL     OW25268   4.234   4.728   0.282  0.2256 -0.8055  0.4723
 8025SOL    HW125269   4.298   4.779   0.233  1.1894 -1.9955  0.4289
 8025SOL    HW225270   4.168   4.704   0.218 -0.5953  0.8952  0.6327
 8026SOL     OW25271   3.559   8.122   2.888  0.0505  0.2211 -0.3580
 8026SOL    HW125272   3.549   8.203   2.839  1.5878 -0.2003 -1.4341
 8026SOL    HW225273   3.480   8.117   2.942 -0.1021  2.3763 -0.3075
 8027SOL     OW25274   4.974   6.284   2.207  0.4865  0.0253 -0.0871
 8027SOL    HW125275   4.954   6.221   2.138  1.7911 -0.9175  0.3644
 8027SOL    HW225276   4.964   6.369   2.164 -1.7000 -0.4239 -0.5940
 8028SOL     OW25277   3.716   7.963   7.850 -0.1433  0.3696 -0.3150
 8028SOL    HW125278   3.648   7.904   7.820  2.7454 -2.8320 -1.2195
 8028SOL    HW225279   3.738   8.016   7.773 -0.0423 -0.2463 -0.7176
 8029SOL     OW25280   7.431   6.692   5.219 -0.0435 -0.5260  0.7989
 8029SOL    HW125281   7.507   6.634   5.228  0.8132  0.2300 -1.0781
 8029SOL    HW225282   7.400   6.677   5.130 -1.0886  0.3944  0.9870
 8030SOL     OW25283   6.213   0.848   0.185  0.6919  0.4579 -0.1941
 8030SOL    HW125284   6.279   0.915   0.202  0.8272  0.0873  0.7993
 8030SOL    HW225285   6.133   0.897   0.166  1.5504  0.9684 -3.0278
 8031SOL     OW25286   0.763   0.049   0.829 -0.5151 -0.6527  0.0441
 8031SOL    HW125287   0.711   0.059   0.750  0.1548  0.5529 -0.2677
 8031SOL    HW225288   0.730   0.117   0.888 -0.4662 -1.0185  0.5007
 8032SOL     OW25289   6.038   1.888   8.409 -0.3127 -0.2088 -0.0490
 8032SOL    HW125290   6.080   1.910   8.327 -2.0085 -1.3892 -1.3013
 8032SOL    HW225291   6.074   1.803   8.433  0.9654  0.5821  1.0682
 8033SOL     OW25292   3.555   6.731   6.178 -0.2104 -0.0312  0.5708
 8033SOL    HW125293   3.495   6.736   6.252 -1.0222 -0.6217 -0.0162
 8033SOL    HW225294   3.577   6.821   6.158  0.9044  0.1014  2.2068
 8034SOL     OW25295   6.815   6.498   7.059  0.7284  0.2251  0.4177
 8034SOL    HW125296   6.854   6.531   6.979  0.7597  0.0926  0.3788
 8034SOL    HW225297   6.856   6.413   7.073  1.5933  0.7521  1.2132
 8035SOL     OW25298   2.187   3.805   4.036 -0.1866  0.1939 -0.5285
 8035SOL    HW125299   2.214   3.713   4.030 -0.8667 -0.2238  1.6935
 8035SOL    HW225300   2.267   3.854   4.019  0.6386 -0.8681  0.1128
 8036SOL     OW25301   7.971   1.133   3.445  0.3196  0.1597 -0.1558
 8036SOL    HW125302   8.044   1.079   3.476  1.2085  1.0067 -0.6987
 8036SOL    HW225303   7.994   1.155   3.355 -1.3588 -0.7767 -0.8605
 8037SOL     OW25304   7.659   4.856   2.467 -0.1111 -0.1655  0.4850
 8037SOL    HW125305   7.599   4.807   2.411 -1.0175  0.3491  0.9776
 8037SOL    HW225306   7.736   4.799   2.476 -1.6778 -2.1742  2.1952
 8038SOL     OW25307   6.327   0.844   6.911  0.0613  0.4386 -0.2565
 8038SOL    HW125308   6.300   0.752   6.910  0.4852  0.2993 -1.8300
 8038SOL    HW225309   6.266   0.888   6.852  0.0028  1.1476  0.3083
 8039SOL     OW25310   0.177   7.746   5.193  0.1070  0.3755  0.3393
 8039SOL    HW125311   0.250   7.723   5.250 -0.4402 -1.2044  0.4471
 8039SOL    HW225312   0.119   7.798   5.248 -0.3420 -1.0016  1.2197
 8040SOL     OW25313   7.713   6.344   3.632  0.1646 -0.2866  0.1673
 8040SOL    HW125314   7.704   6.321   3.724 -0.6897  0.6082  0.3236
 8040SOL    HW225315   7.626   6.376   3.607  0.2737 -0.9075 -1.0635
 8041SOL     OW25316   3.298   6.260   3.241  0.0906  0.2994  0.2981
 8041SOL    HW125317   3.344   6.192   3.191 -0.6432 -1.6162  2.1009
 8041SOL    HW225318   3.213   6.268   3.196  0.2934  0.2524 -0.1015
 8042SOL     OW25319   0.561   6.968   5.310  0.8016 -0.0446  0.1270
 8042SOL    HW125320   0.644   6.921   5.310  1.1170  0.4759  1.5129
 8042SOL    HW225321   0.504   6.916   5.253  1.5953 -1.2807  0.4223
 8043SOL     OW25322   4.482   5.767   0.743 -0.1976  0.1564  0.2075
 8043SOL    HW125323   4.389   5.784   0.729 -0.3855 -0.7543  0.3164
 8043SOL    HW225324   4.488   5.673   0.757  1.2097 -0.5317 -3.7503
 8044SOL     OW25325   7.224   6.211   4.167  0.0081 -0.2191 -0.1622
 8044SOL    HW125326   7.272   6.139   4.127  1.3378  0.9090 -0.6975
 8044SOL    HW225327   7.292   6.269   4.201 -1.0465  0.0046  1.7017
 8045SOL     OW25328   3.510   4.346   3.697 -0.0463 -0.6211  0.0806
 8045SOL    HW125329   3.508   4.323   3.790  0.8023 -1.2124 -0.0359
 8045SOL    HW225330   3.467   4.274   3.653 -0.8675 -0.1194  0.0468
 8046SOL     OW25331   8.450   4.279   0.993 -0.3840  0.8172 -0.3593
 8046SOL    HW125332   8.389   4.299   1.065  0.4322  1.0642  0.2799
 8046SOL    HW225333   8.441   4.352   0.933 -1.5329  0.3110 -0.8424
 8047SOL     OW25334   3.061   5.351   4.577 -0.3857  0.1757 -0.3144
 8047SOL    HW125335   3.109   5.381   4.500  1.3000 -0.6978  0.3465
 8047SOL    HW225336   3.126   5.302   4.628 -2.1255 -1.5156  0.3676
 8048SOL     OW25337   6.743   3.983   2.332  0.0099 -0.2908 -0.0772
 8048SOL    HW125338   6.656   3.962   2.366 -0.1327 -0.1660 -0.3594
 8048SOL    HW225339   6.749   4.078   2.339  0.5262 -0.3819  0.8911
 8049SOL     OW25340   4.715   3.420   4.386 -0.4455  0.2648  0.3068
 8049SOL    HW125341   4.676   3.353   4.442  0.5319  0.0992  0.8152
 8049SOL    HW225342   4.725   3.377   4.301  0.0396 -0.1958  0.5903
 8050SOL     OW25343   7.705   6.977   8.580  0.3027  0.1282  0.4532
 8050SOL    HW125344   7.785   6.974   8.528 -0.0483  1.0103 -0.1515
 8050SOL    HW225345   7.735   6.996   8.669  0.7087  1.2916  0.0735
 8051SOL     OW25346   8.041   1.620   0.182 -0.9938  0.0534  0.1082
 8051SOL    HW125347   8.058   1.691   0.245  2.1234 -0.4421 -0.0397
 8051SOL    HW225348   8.072   1.541   0.226  0.2576 -0.4602 -1.6010
 8052SOL     OW25349   6.795   6.879   8.253 -0.3155  0.5060  0.1728
 8052SOL    HW125350   6.750   6.949   8.300 -0.2824  0.7090 -0.0933
 8052SOL    HW225351   6.871   6.858   8.308 -0.3710  0.6224  0.2937
 8053SOL     OW25352   5.182   7.788   6.857  0.0843  0.1057  0.0670
 8053SOL    HW125353   5.160   7.765   6.948  0.8790  0.6040  0.3947
 8053SOL    HW225354   5.261   7.737   6.838 -0.6165 -0.7318 -0.6828
 8054SOL     OW25355   0.967   6.433   3.152  0.5457  0.3001 -0.6087
 8054SOL    HW125356   1.010   6.351   3.175 -1.3275  0.1260  3.0103
 8054SOL    HW225357   1.032   6.501   3.174  0.4691 -0.0920  0.9266
 8055SOL     OW25358   4.738   5.240   7.414  0.0012  0.5680  0.5404
 8055SOL    HW125359   4.833   5.239   7.404 -0.0735 -0.6176 -0.2786
 8055SOL    HW225360   4.724   5.280   7.499  1.3750 -1.6440  1.8947
 8056SOL     OW25361   4.270   1.268   2.550 -0.2564 -0.0505  0.0478
 8056SOL    HW125362   4.310   1.190   2.588  2.8658 -0.6540 -3.8393
 8056SOL    HW225363   4.224   1.237   2.472  1.0423  1.8921 -1.5927
 8057SOL     OW25364   7.917   1.779   6.545 -0.1475  0.0458  0.0988
 8057SOL    HW125365   7.894   1.869   6.570  1.0085  0.0264  1.3759
 8057SOL    HW225366   7.847   1.725   6.582 -0.1005  0.3085  0.5899
 8058SOL     OW25367   3.310   7.680   6.429  0.3023  0.0671 -0.3853
 8058SOL    HW125368   3.304   7.597   6.476 -0.7135  0.6242  0.5121
 8058SOL    HW225369   3.287   7.746   6.494  0.1549  0.9821 -1.3360
 8059SOL     OW25370   0.063   8.037   4.044  0.3091  0.2833  0.3421
 8059SOL    HW125371  -0.031   8.027   4.029  0.3837  0.0165  0.0454
 8059SOL    HW225372   0.103   7.963   3.999  0.7329  0.9201 -0.3596
 8060SOL     OW25373   6.303   4.682   3.725 -0.5158  0.8915 -0.5767
 8060SOL    HW125374   6.238   4.699   3.657 -1.3341 -0.5470 -0.1779
 8060SOL    HW225375   6.303   4.762   3.778 -2.8516  0.4950  0.1222
 8061SOL     OW25376   7.967   0.807   2.868 -0.9301 -0.0574  0.7720
 8061SOL    HW125377   7.920   0.723   2.879 -2.5848  0.2916 -2.3966
 8061SOL    HW225378   7.903   0.864   2.825  1.6137  1.2890 -1.4995
 8062SOL     OW25379   4.396   5.045   3.010 -0.0137  0.2514 -0.6299
 8062SOL    HW125380   4.338   5.066   3.082  2.5149  1.6360  1.1596
 8062SOL    HW225381   4.370   5.103   2.939 -0.7327  0.9024  0.1593
 8063SOL     OW25382   0.009   2.279   4.648 -0.0611  0.1257 -0.5802
 8063SOL    HW125383  -0.048   2.273   4.572 -0.4366  1.7527 -0.4695
 8063SOL    HW225384   0.093   2.309   4.613  0.5322 -1.5164 -0.6431
 8064SOL     OW25385   3.886   7.640   1.947  0.5937 -0.1170 -0.3111
 8064SOL    HW125386   3.926   7.566   1.992 -1.7844 -0.6876  1.0768
 8064SOL    HW225387   3.934   7.647   1.865  2.0871 -2.0212  0.3161
 8065SOL     OW25388   7.141   6.883   1.446 -0.5516 -0.3004  0.6942
 8065SOL    HW125389   7.228   6.920   1.458  0.1964 -1.1350 -1.5287
 8065SOL    HW225390   7.152   6.789   1.463 -0.6708 -0.6201 -0.8300
 8066SOL     OW25391   6.930   7.569   6.251 -0.5813 -0.0012  0.0392
 8066SOL    HW125392   6.877   7.647   6.268 -0.2717  1.0441 -3.1857
 8066SOL    HW225393   7.020   7.601   6.257 -0.3906 -0.6888  0.9675
 8067SOL     OW25394   6.337   0.945   8.187 -0.0433 -0.2063  0.3722
 8067SOL    HW125395   6.281   0.896   8.127  0.3068  0.2212 -0.3139
 8067SOL    HW225396   6.297   1.031   8.192 -0.7844 -0.5997  1.7523
 8068SOL     OW25397   2.774   5.843   2.849  0.0612 -0.7717 -0.3056
 8068SOL    HW125398   2.801   5.754   2.871  1.2124 -0.7448 -1.5014
 8068SOL    HW225399   2.856   5.890   2.832 -0.3828  1.0180  1.9574
 8069SOL     OW25400   5.778   1.511   0.135  0.1415 -0.2872 -0.0522
 8069SOL    HW125401   5.798   1.437   0.193  1.0763  0.7712  1.0346
 8069SOL    HW225402   5.847   1.575   0.153  0.2486  0.2311 -2.1090
 8070SOL     OW25403   2.683   0.345   5.423 -0.6756 -0.5087 -0.2964
 8070SOL    HW125404   2.593   0.313   5.434 -1.1169  0.1039 -1.8799
 8070SOL    HW225405   2.692   0.413   5.490 -0.7190 -1.8548  1.1335
 8071SOL     OW25406   0.432   8.183   4.470  0.0726  0.2262 -0.3524
 8071SOL    HW125407   0.383   8.265   4.461  1.4817  1.1170 -0.1961
 8071SOL    HW225408   0.376   8.127   4.524 -1.6016  0.4920 -1.7191
 8072SOL     OW25409   4.144   3.546   6.166 -0.0040  0.1054  0.5377
 8072SOL    HW125410   4.102   3.468   6.131 -1.6640  1.5067 -0.7757
 8072SOL    HW225411   4.204   3.513   6.234 -0.5443 -2.2719 -0.0544
 8073SOL     OW25412   0.688   5.587   2.103  0.5015  0.0677 -0.3463
 8073SOL    HW125413   0.772   5.614   2.141  0.4265  0.4934 -0.4801
 8073SOL    HW225414   0.697   5.603   2.009  0.3664 -0.1453 -0.3988
 8074SOL     OW25415   4.083   2.067   6.598  0.6080  0.2438  0.2675
 8074SOL    HW125416   4.087   2.021   6.682 -2.6266 -0.9636 -0.1093
 8074SOL    HW225417   4.042   2.151   6.619 -0.0329  0.0151 -0.0237
 8075SOL     OW25418   3.409   7.610   0.230 -0.3648  0.5525 -0.0617
 8075SOL    HW125419   3.413   7.684   0.291 -2.4710 -0.3591  1.3115
 8075SOL    HW225420   3.355   7.641   0.157  0.8776  1.1514 -0.7509
 8076SOL     OW25421   7.919   5.067   4.158  0.4443 -0.8116  0.0679
 8076SOL    HW125422   7.938   5.077   4.252  0.7128 -0.4554 -0.0185
 8076SOL    HW225423   7.826   5.046   4.154 -0.1775  1.5812  0.3128
 8077SOL     OW25424   0.823   3.102   4.292 -0.1531  0.2352 -0.0232
 8077SOL    HW125425   0.909   3.131   4.264  0.2712 -0.6797  0.2954
 8077SOL    HW225426   0.838   3.055   4.374 -0.9650  0.1667  0.0982
 8078SOL     OW25427   8.342   7.019   3.225 -0.4259  0.1511 -0.3019
 8078SOL    HW125428   8.334   7.028   3.130  2.4393  1.4739 -0.5161
 8078SOL    HW225429   8.425   6.974   3.237  0.2440  1.7589  1.5795
 8079SOL     OW25430   5.403   6.154   6.900 -0.4431  1.2483 -0.4370
 8079SOL    HW125431   5.430   6.245   6.913 -0.2602  1.0016  1.0414
 8079SOL    HW225432   5.394   6.119   6.988  0.5513 -0.4892 -0.9812
 8080SOL     OW25433   7.717   1.602   1.714 -0.0660 -0.3817 -0.1203
 8080SOL    HW125434   7.647   1.601   1.780  0.5548 -1.2467  0.5394
 8080SOL    HW225435   7.671   1.605   1.630 -0.8998 -1.1436  0.2972
 8081SOL     OW25436   5.149   6.575   5.979 -0.5130  0.3792 -0.2264
 8081SOL    HW125437   5.186   6.490   5.957  0.7369  0.5636  1.0039
 8081SOL    HW225438   5.226   6.632   5.991 -1.1555  0.9050  1.9102
 8082SOL     OW25439   6.579   6.246   0.677  0.1415 -0.4097  0.1445
 8082SOL    HW125440   6.651   6.197   0.717  0.3176 -0.7905 -0.6364
 8082SOL    HW225441   6.565   6.204   0.593 -0.5286  0.1134 -0.0101
 8083SOL     OW25442   0.549   5.598   8.197  0.0428  0.6971  0.1299
 8083SOL    HW125443   0.532   5.549   8.117 -2.2907 -0.4415  1.2430
 8083SOL    HW225444   0.463   5.628   8.227  1.0855  3.0417  1.0566
 8084SOL     OW25445   4.583   7.356   4.688  0.0705  0.2250 -0.2437
 8084SOL    HW125446   4.492   7.347   4.717 -0.8269  1.6556 -2.3901
 8084SOL    HW225447   4.634   7.316   4.759 -2.2208 -1.1289  0.7866
 8085SOL     OW25448   1.504   7.496   0.017 -0.2638  0.3375 -0.8501
 8085SOL    HW125449   1.538   7.483  -0.071  2.1401  0.4414 -0.0087
 8085SOL    HW225450   1.544   7.426   0.068 -2.2606 -0.2144  0.0277
 8086SOL     OW25451   3.672   5.080   7.444 -0.5384  0.1811 -0.5915
 8086SOL    HW125452   3.657   5.007   7.504  0.4378 -0.3239 -0.9356
 8086SOL    HW225453   3.586   5.098   7.406 -0.9728 -0.1435  0.2192
 8087SOL     OW25454   7.544   7.502   3.267 -0.1994  0.1172  0.0108
 8087SOL    HW125455   7.484   7.572   3.240  0.1689 -0.0660 -1.3716
 8087SOL    HW225456   7.631   7.534   3.241 -0.0490 -0.9339 -0.8766
 8088SOL     OW25457   7.251   7.894   4.771 -0.2567  0.1469 -0.0388
 8088SOL    HW125458   7.280   7.803   4.775  0.2625  0.3318  0.4713
 8088SOL    HW225459   7.203   7.901   4.688  1.2190 -0.1464 -0.9345
 8089SOL     OW25460   2.563   0.849   4.880 -0.0355 -0.1377  0.6455
 8089SOL    HW125461   2.591   0.810   4.963  2.5779  0.3716  0.0995
 8089SOL    HW225462   2.558   0.775   4.819  1.0720 -0.1639  0.5576
 8090SOL     OW25463   1.590   5.646   5.767 -0.0435  0.2341 -0.3425
 8090SOL    HW125464   1.584   5.675   5.858  2.9591 -1.5081  0.5613
 8090SOL    HW225465   1.678   5.671   5.739  0.2232 -1.9534 -1.7103
 8091SOL     OW25466   2.163   0.351   5.466 -0.5901 -0.2138  0.6887
 8091SOL    HW125467   2.194   0.286   5.529 -0.8055  0.4094  1.4549
 8091SOL    HW225468   2.221   0.426   5.479  0.7543 -0.8071 -1.3529
 8092SOL     OW25469   1.802   2.458   6.030  0.1850  0.0772  0.0235
 8092SOL    HW125470   1.754   2.500   6.101 -0.1506 -1.5194  0.7866
 8092SOL    HW225471   1.742   2.461   5.955 -0.9483 -1.4422  0.8230
 8093SOL     OW25472   7.238   0.429   3.057  0.7161 -0.6403 -0.0379
 8093SOL    HW125473   7.285   0.454   3.137 -1.8698 -0.3905  1.5482
 8093SOL    HW225474   7.207   0.512   3.021  2.1336 -0.7280 -1.5367
 8094SOL     OW25475   2.354   2.705   8.070 -0.3046  0.6665 -0.3526
 8094SOL    HW125476   2.359   2.621   8.025  0.7887  0.5188  0.0104
 8094SOL    HW225477   2.289   2.755   8.021  1.3869  0.8015 -2.6551
 8095SOL     OW25478   2.290   2.998   6.934 -0.6349 -0.0833 -0.2626
 8095SOL    HW125479   2.230   3.065   6.965 -0.2428 -0.0695  0.4898
 8095SOL    HW225480   2.249   2.915   6.961 -0.4863 -0.0867 -0.0403
 8096SOL     OW25481   2.552   1.937   7.317  0.8260  0.0796  0.7470
 8096SOL    HW125482   2.526   1.893   7.236  0.1718 -0.4214  1.2171
 8096SOL    HW225483   2.578   1.866   7.375  3.1278  0.5519  0.3659
 8097SOL     OW25484   0.558   7.751   5.073  0.5771 -0.3681  0.0053
 8097SOL    HW125485   0.551   7.711   4.987 -0.2051  2.7302 -1.5115
 8097SOL    HW225486   0.619   7.824   5.061 -1.6627  1.8818  1.2650
 8098SOL     OW25487   1.762   3.226   5.616 -0.3919 -0.1593  0.2421
 8098SOL    HW125488   1.835   3.177   5.652 -0.6172 -0.1159  0.7585
 8098SOL    HW225489   1.769   3.212   5.521  0.9617  0.7960  0.1699
 8099SOL     OW25490   7.626   4.078   0.709  0.0275  0.1230 -0.3229
 8099SOL    HW125491   7.611   3.984   0.701 -0.2016  0.1892 -0.6853
 8099SOL    HW225492   7.591   4.101   0.795 -1.7023  0.2208 -1.0123
 8100SOL     OW25493   4.899   0.380   2.052 -0.0535  0.2914 -0.5018
 8100SOL    HW125494   4.921   0.337   1.969 -0.2314  0.1112 -0.4561
 8100SOL    HW225495   4.821   0.334   2.082  1.2139 -1.1008  0.8207
 8101SOL     OW25496   3.160   0.904   6.273 -0.3716  0.1253  0.0672
 8101SOL    HW125497   3.211   0.949   6.340 -1.2357 -0.6171  1.2531
 8101SOL    HW225498   3.216   0.833   6.243 -0.2552  0.0156  0.5390
 8102SOL     OW25499   1.921   2.014   6.950 -0.4798  0.1703  0.0306
 8102SOL    HW125500   1.988   2.070   6.912 -0.6913  0.6070  0.2971
 8102SOL    HW225501   1.969   1.936   6.979 -0.1031  0.4402  0.1346
 8103SOL     OW25502   6.943   2.439   5.374  0.1331 -0.6926  0.4696
 8103SOL    HW125503   6.903   2.386   5.443  1.8867 -1.4272  0.9715
 8103SOL    HW225504   6.988   2.509   5.420  0.1826 -0.4071 -0.0096
 8104SOL     OW25505   4.156   0.188   2.194 -0.4155  0.2311 -0.4251
 8104SOL    HW125506   4.222   0.126   2.162  0.2100 -0.4993  2.0702
 8104SOL    HW225507   4.207   0.262   2.226 -0.9269  0.5272 -0.2901
 8105SOL     OW25508   7.955   7.373   1.179  0.1401  0.0074  0.3414
 8105SOL    HW125509   7.898   7.420   1.239  0.9009  0.7785  0.4794
 8105SOL    HW225510   8.037   7.361   1.227  1.0232  1.2911 -0.7574
 8106SOL     OW25511   8.072   3.230   4.437  0.3191 -0.3196 -0.6495
 8106SOL    HW125512   8.141   3.280   4.393  0.3573 -0.0133 -0.2442
 8106SOL    HW225513   8.087   3.245   4.530 -0.8813  0.5250 -0.5816
 8107SOL     OW25514   6.869   6.766   2.539  0.2000  0.1290 -0.0304
 8107SOL    HW125515   6.912   6.849   2.520 -0.4108  0.5947  0.5679
 8107SOL    HW225516   6.939   6.701   2.537  0.3266  0.2065 -3.0909
 8108SOL     OW25517   5.167   7.014   0.830  0.2606  0.2493 -0.0550
 8108SOL    HW125518   5.252   7.054   0.812  0.0565  0.4367 -0.6256
 8108SOL    HW225519   5.166   7.001   0.925  0.9025  0.2974 -0.0410
 8109SOL     OW25520   3.685   2.745   8.584  0.1272  0.2093 -0.3037
 8109SOL    HW125521   3.625   2.672   8.568 -0.3566  0.0691  1.8966
 8109SOL    HW225522   3.771   2.712   8.557 -0.3447 -0.5297 -0.9519
 8110SOL     OW25523   3.787   4.615   3.005 -0.5260  0.8788  0.2237
 8110SOL    HW125524   3.757   4.706   3.002 -1.5101  0.6241  1.6674
 8110SOL    HW225525   3.712   4.564   2.977 -0.6167  0.3907  1.3272
 8111SOL     OW25526   6.789   2.876   1.416  0.1011  0.8703  0.0769
 8111SOL    HW125527   6.734   2.868   1.338  0.0973 -0.9758  0.2225
 8111SOL    HW225528   6.863   2.929   1.388  0.6558 -0.6491 -1.5436
 8112SOL     OW25529   5.034   5.637   1.516 -0.3284  0.4060 -0.7186
 8112SOL    HW125530   5.055   5.649   1.609 -0.8438  1.7686 -0.7658
 8112SOL    HW225531   5.093   5.696   1.470 -1.3098  1.0897 -1.1285
 8113SOL     OW25532   6.597   6.687   6.961  0.0020 -0.4000  0.0904
 8113SOL    HW125533   6.544   6.670   6.883 -0.5586 -0.0825  0.3931
 8113SOL    HW225534   6.660   6.615   6.963  0.9470  0.3378 -1.4298
 8114SOL     OW25535   8.425   0.559   2.618  0.4066  0.1502 -0.1755
 8114SOL    HW125536   8.333   0.571   2.597  0.6952  0.0196 -1.6848
 8114SOL    HW225537   8.438   0.464   2.615  0.4250  0.1160  0.8351
 8115SOL     OW25538   0.925   1.146   8.192 -0.4508 -0.2722  0.2827
 8115SOL    HW125539   0.981   1.113   8.121 -0.2545 -2.6884  1.4557
 8115SOL    HW225540   0.859   1.200   8.148 -0.5248 -1.9443 -1.7967
 8116SOL     OW25541   0.787   7.836   5.937 -0.1823  0.2186  0.1112
 8116SOL    HW125542   0.813   7.907   5.995 -0.4017  1.3498 -1.1336
 8116SOL    HW225543   0.803   7.756   5.988  0.6329  1.1203  1.3194
 8117SOL     OW25544   5.957   0.742   0.039  0.1398 -0.1152  0.3318
 8117SOL    HW125545   5.939   0.652   0.012 -2.1152  0.1957  0.6461
 8117SOL    HW225546   5.956   0.740   0.135  1.3602  0.0514  0.3759
 8118SOL     OW25547   7.617   4.911   4.840  0.2215 -0.3786 -0.0456
 8118SOL    HW125548   7.660   4.965   4.906 -0.6547 -0.1336  0.3329
 8118SOL    HW225549   7.655   4.824   4.853  1.0270 -0.0455 -0.1056
 8119SOL     OW25550   7.385   3.187   7.417 -0.4844 -1.2203 -0.1122
 8119SOL    HW125551   7.375   3.101   7.377 -2.9941 -0.7016 -0.8062
 8119SOL    HW225552   7.322   3.242   7.371 -0.3006  0.5240  1.5762
 8120SOL     OW25553   6.641   7.612   6.690 -0.0210  0.1852  0.5135
 8120SOL    HW125554   6.571   7.547   6.697 -0.6119  0.8541  0.9622
 8120SOL    HW225555   6.620   7.662   6.612  0.5437 -0.2716  0.0548
 8121SOL     OW25556   3.295   4.350   5.004  0.4268  0.1187 -0.1092
 8121SOL    HW125557   3.356   4.286   4.968  0.0324  0.1660 -0.8688
 8121SOL    HW225558   3.232   4.365   4.934 -0.6012 -0.1065  0.7504
 8122SOL     OW25559   7.681   7.232   7.308  0.0281  0.6331 -0.0259
 8122SOL    HW125560   7.622   7.161   7.333 -1.0681  1.5755  0.1495
 8122SOL    HW225561   7.624   7.296   7.266  1.3231  0.4638 -2.2083
 8123SOL     OW25562   3.409   8.264   1.552 -0.6284  0.0874  0.0897
 8123SOL    HW125563   3.484   8.321   1.534  0.2268 -1.1233 -0.3440
 8123SOL    HW225564   3.441   8.202   1.617 -0.9555 -1.0266 -0.7905
 8124SOL     OW25565   8.274   6.774   5.407  0.5246  0.1173  0.0540
 8124SOL    HW125566   8.262   6.828   5.329 -0.9938  2.0447  1.5414
 8124SOL    HW225567   8.218   6.698   5.391  0.3665  0.3927 -0.7958
 8125SOL     OW25568   6.555   4.009   6.691 -0.3058  0.4500 -0.1952
 8125SOL    HW125569   6.472   4.053   6.676 -0.8908 -0.4595  0.2939
 8125SOL    HW225570   6.614   4.044   6.623 -0.7549  1.9104  0.1428
 8126SOL     OW25571   7.000   6.249   8.105  0.2426  0.1162 -0.8321
 8126SOL    HW125572   6.972   6.340   8.117  0.2937  0.2048 -1.3818
 8126SOL    HW225573   6.934   6.197   8.150  1.0292  0.4914  0.8551
 8127SOL     OW25574   1.208   4.411   1.923 -0.1863  0.2419  0.2599
 8127SOL    HW125575   1.189   4.319   1.905 -0.2919  0.3727 -0.3521
 8127SOL    HW225576   1.283   4.431   1.866 -1.1893  0.9516 -0.8748
 8128SOL     OW25577   6.224   3.643   8.256  0.0205  0.3428 -0.2209
 8128SOL    HW125578   6.155   3.664   8.318 -1.0912 -1.6366 -0.6947
 8128SOL    HW225579   6.217   3.709   8.188 -1.4072  0.2163 -0.2293
 8129SOL     OW25580   7.431   7.488   6.406  0.1387  0.1576 -0.1353
 8129SOL    HW125581   7.452   7.455   6.494 -0.3151 -0.5577 -0.2875
 8129SOL    HW225582   7.477   7.572   6.400 -0.5113  0.6202  1.1002
 8130SOL     OW25583   0.463   1.434   5.629 -0.0354  0.5666  0.1790
 8130SOL    HW125584   0.433   1.363   5.572 -1.0901  0.1322  1.2347
 8130SOL    HW225585   0.474   1.393   5.714  0.3384  1.4670  0.5741
 8131SOL     OW25586   1.960   1.850   2.269  0.4904  0.1345  0.1208
 8131SOL    HW125587   2.052   1.837   2.293  0.8775  0.4399 -1.1028
 8131SOL    HW225588   1.956   1.940   2.238 -0.6080  0.6924  1.7527
 8132SOL     OW25589   5.917   1.450   1.731 -0.0675  0.1747  0.0008
 8132SOL    HW125590   5.967   1.442   1.813  0.3443 -0.0619 -0.2697
 8132SOL    HW225591   5.826   1.459   1.759 -0.3089 -2.7777  0.4255
 8133SOL     OW25592   8.571   6.293   1.373  0.0745  0.3017  0.3651
 8133SOL    HW125593   8.490   6.316   1.327  0.2812 -0.7286 -0.5239
 8133SOL    HW225594   8.632   6.364   1.351 -0.7187  1.3753  1.4761
 8134SOL     OW25595   0.424   6.056   1.706  0.5072  0.3031 -0.5037
 8134SOL    HW125596   0.381   6.119   1.764  0.5916 -0.6566  0.6603
 8134SOL    HW225597   0.358   5.987   1.694  0.0593  1.0416 -2.5502
 8135SOL     OW25598   0.782   5.484   6.322 -0.4079 -0.4646 -0.9404
 8135SOL    HW125599   0.776   5.389   6.313 -2.2838 -0.4517 -0.2452
 8135SOL    HW225600   0.852   5.510   6.262  0.9222 -2.3918 -0.2989
 8136SOL     OW25601   3.136   0.167   0.823  0.2552 -0.0406  0.0337
 8136SOL    HW125602   3.057   0.144   0.872 -0.5692 -2.1216 -2.0895
 8136SOL    HW225603   3.104   0.204   0.741  1.3996 -1.7070 -1.2370
 8137SOL     OW25604   2.453   4.312   0.509  0.8833  0.0253  0.0715
 8137SOL    HW125605   2.444   4.330   0.603  0.1244 -2.5995  0.5953
 8137SOL    HW225606   2.363   4.314   0.476  0.8284 -1.7735  0.0296
 8138SOL     OW25607   4.230   6.072   3.092 -0.0571  0.4213  0.4018
 8138SOL    HW125608   4.185   6.145   3.048 -0.9351 -0.6365 -0.5063
 8138SOL    HW225609   4.320   6.079   3.062 -0.3472  0.5562 -0.4724
 8139SOL     OW25610   5.609   7.596   0.343 -0.0126  0.3132  0.1989
 8139SOL    HW125611   5.691   7.643   0.330  0.7496 -1.1424 -0.5218
 8139SOL    HW225612   5.613   7.523   0.281 -2.2736  0.7210 -0.5172
 8140SOL     OW25613   6.348   2.757   6.557 -0.5610  0.4160 -0.2171
 8140SOL    HW125614   6.416   2.786   6.617 -1.3395 -0.6856  1.2612
 8140SOL    HW225615   6.268   2.755   6.610 -1.1824 -1.0778 -1.1301
 8141SOL     OW25616   5.291   7.687   3.390 -0.1849 -0.4008 -0.0491
 8141SOL    HW125617   5.360   7.752   3.397 -1.4374  0.9797 -0.0464
 8141SOL    HW225618   5.224   7.716   3.452 -1.3242 -0.9659 -0.9789
 8142SOL     OW25619   2.189   3.965   0.077 -0.4948  0.4187  0.0612
 8142SOL    HW125620   2.248   3.954   0.151 -1.3528  0.9574  0.8428
 8142SOL    HW225621   2.128   3.892   0.082 -0.3679  0.2814 -0.3058
 8143SOL     OW25622   3.462   8.359   2.785  0.0370 -0.1405 -0.1743
 8143SOL    HW125623   3.459   8.408   2.703 -1.5985 -0.2523 -0.2150
 8143SOL    HW225624   3.392   8.398   2.839 -0.0934 -1.2425  0.4782
 8144SOL     OW25625   5.221   7.506   1.600 -0.5166 -0.7258  0.0762
 8144SOL    HW125626   5.173   7.520   1.681 -0.7421  0.3940 -0.2415
 8144SOL    HW225627   5.313   7.523   1.624 -0.8092  1.9595 -0.3854
 8145SOL     OW25628   4.437   7.922   3.225 -0.5905  0.2032  0.3296
 8145SOL    HW125629   4.442   7.889   3.135 -3.6888  1.6461 -0.5081
 8145SOL    HW225630   4.369   7.869   3.266 -0.5737  0.8401  1.2163
 8146SOL     OW25631   0.759   5.187   3.199  0.8240  0.1892 -0.5660
 8146SOL    HW125632   0.708   5.268   3.191  0.6770  0.1808  0.1835
 8146SOL    HW225633   0.806   5.197   3.282  1.0574 -0.3535 -0.6295
 8147SOL     OW25634   1.696   7.885   6.315 -0.6494  0.8261  0.0867
 8147SOL    HW125635   1.721   7.974   6.340  0.8825  0.1469  1.0931
 8147SOL    HW225636   1.636   7.856   6.384  0.5623  0.3275  0.9615
 8148SOL     OW25637   6.527   8.435   6.310  0.2544 -0.9277 -0.4731
 8148SOL    HW125638   6.579   8.381   6.369  0.9590 -0.8089 -0.9686
 8148SOL    HW225639   6.549   8.403   6.222  0.2587 -0.2086 -0.7399
 8149SOL     OW25640   6.841   6.433   2.649 -0.0675 -0.2848 -0.8353
 8149SOL    HW125641   6.881   6.479   2.576 -0.8198 -0.3772 -1.3159
 8149SOL    HW225642   6.758   6.400   2.615  0.0943 -1.3375 -0.2782
 8150SOL     OW25643   1.850   6.288   1.383  0.4448 -0.6918  0.0486
 8150SOL    HW125644   1.916   6.291   1.314 -0.0968 -0.6519 -0.4807
 8150SOL    HW225645   1.771   6.324   1.343 -0.0035 -1.0813  0.5480
 8151SOL     OW25646   1.269   1.465   4.017  0.1055  0.3656 -0.1826
 8151SOL    HW125647   1.231   1.384   4.050 -2.0546  1.9587  1.4973
 8151SOL    HW225648   1.334   1.489   4.083  0.7225  0.0799 -0.6655
 8152SOL     OW25649   4.457   5.729   8.285 -0.2790  0.5557  0.0597
 8152SOL    HW125650   4.400   5.801   8.257  0.1180  0.5497 -0.7839
 8152SOL    HW225651   4.432   5.656   8.230 -2.0931 -0.6054  2.2586
 8153SOL     OW25652   6.570   6.688   1.725 -0.0043 -0.3641 -0.5256
 8153SOL    HW125653   6.653   6.654   1.758  0.0701  0.1058 -0.2070
 8153SOL    HW225654   6.542   6.751   1.792 -0.3446 -0.1206 -0.8908
 8154SOL     OW25655   3.119   8.082   3.713  0.3978  0.3676 -0.0656
 8154SOL    HW125656   3.184   8.022   3.748 -0.6124 -1.1465 -0.6737
 8154SOL    HW225657   3.036   8.034   3.718 -0.2583  1.2269 -1.6693
 8155SOL     OW25658   4.915   4.038   2.187  0.3769  0.1392 -0.0961
 8155SOL    HW125659   4.950   4.039   2.098  0.5926  1.9187 -0.0190
 8155SOL    HW225660   4.857   4.113   2.191 -0.8454 -0.8055  0.8264
 8156SOL     OW25661   0.335   4.146   4.612 -0.1420  1.0154 -0.2493
 8156SOL    HW125662   0.311   4.086   4.542  1.3525  0.4613 -0.3202
 8156SOL    HW225663   0.289   4.228   4.591  0.0602  0.7761 -1.7197
 8157SOL     OW25664   4.255   5.896   1.829  0.5993  0.1605 -0.2395
 8157SOL    HW125665   4.345   5.928   1.817  0.6276 -0.2076 -1.1016
 8157SOL    HW225666   4.258   5.805   1.801 -0.1827  0.3294 -0.9127
 8158SOL     OW25667   3.266   6.722   1.337  0.8135 -0.2436 -0.3784
 8158SOL    HW125668   3.221   6.785   1.394 -0.5988 -2.1130  0.7061
 8158SOL    HW225669   3.260   6.761   1.249 -1.7040  0.2986 -0.0457
 8159SOL     OW25670   2.949   2.011   3.094  0.3280 -0.0979  0.1700
 8159SOL    HW125671   2.914   2.018   3.183  1.5992  0.9298  0.6229
 8159SOL    HW225672   3.041   1.988   3.106  0.7981  1.1308 -0.8181
 8160SOL     OW25673   4.685   1.896   2.880  0.0511 -0.5661  0.0132
 8160SOL    HW125674   4.694   1.847   2.798  0.3179 -0.6633  0.0989
 8160SOL    HW225675   4.641   1.834   2.939  1.6521 -1.2360  0.5641
 8161SOL     OW25676   8.283   0.683   0.004 -0.5628  0.1857  0.3325
 8161SOL    HW125677   8.199   0.639   0.016 -0.7519  0.2379 -0.7091
 8161SOL    HW225678   8.266   0.751  -0.062  0.0871  0.7974  0.7701
 8162SOL     OW25679   3.851   1.066   8.257  0.7028  0.0258  0.0690
 8162SOL    HW125680   3.805   0.986   8.281  0.3251  0.2655  0.1519
 8162SOL    HW225681   3.931   1.036   8.214  0.3806 -0.3909 -0.2413
 8163SOL     OW25682   3.148   7.901   3.074  0.1325  0.1086  0.1557
 8163SOL    HW125683   3.232   7.855   3.068 -0.7482 -1.6099  0.3434
 8163SOL    HW225684   3.126   7.900   3.167 -0.5256 -0.3079  0.0059
 8164SOL     OW25685   1.720   0.685   1.599  0.4766 -0.2691  0.1208
 8164SOL    HW125686   1.664   0.727   1.665  2.5203 -0.4800  2.0926
 8164SOL    HW225687   1.743   0.600   1.636  0.6071 -0.9938 -1.5100
 8165SOL     OW25688   8.300   7.081   3.793 -0.6814  0.3366 -0.3696
 8165SOL    HW125689   8.324   6.989   3.801  2.0117  1.0019  0.4328
 8165SOL    HW225690   8.229   7.082   3.730 -1.2869 -2.3448  0.1378
 8166SOL     OW25691   7.783   7.613   4.223 -0.4638 -0.2140 -0.1631
 8166SOL    HW125692   7.851   7.680   4.234  1.1386 -1.7836 -0.1232
 8166SOL    HW225693   7.712   7.643   4.279  0.6360  0.9099  0.7067
 8167SOL     OW25694   6.757   5.631   5.415  0.5152  0.5754  0.0393
 8167SOL    HW125695   6.681   5.658   5.363 -0.3636  0.6518  1.3199
 8167SOL    HW225696   6.819   5.596   5.351 -0.0232  1.7807 -1.1882
 8168SOL     OW25697   4.110   4.350   6.819 -0.2760 -0.0788 -0.1854
 8168SOL    HW125698   4.030   4.348   6.766 -0.5698 -2.5843  0.2629
 8168SOL    HW225699   4.083   4.321   6.906  1.0310 -0.3958  0.1431
 8169SOL     OW25700   8.434   4.450   4.676 -0.7038  0.5042  0.2994
 8169SOL    HW125701   8.419   4.402   4.595 -1.9664  0.7945  0.3488
 8169SOL    HW225702   8.481   4.529   4.649  2.6957 -1.2769  0.3607
 8170SOL     OW25703   3.113   8.061   5.657  0.3741  0.4537 -0.3207
 8170SOL    HW125704   3.193   8.012   5.638  0.3275  1.1674 -2.6923
 8170SOL    HW225705   3.042   7.997   5.646  0.5194 -0.0440  1.2655
 8171SOL     OW25706   7.387   3.696   0.678  0.1318 -0.0135  0.2606
 8171SOL    HW125707   7.423   3.748   0.749  0.7979 -0.5029  0.2937
 8171SOL    HW225708   7.388   3.606   0.711 -0.0826 -0.1743 -0.1576
 8172SOL     OW25709   2.590   7.618   0.844 -0.5410 -0.2334  0.6933
 8172SOL    HW125710   2.541   7.626   0.763 -1.9434 -0.6812  1.4587
 8172SOL    HW225711   2.666   7.675   0.832  0.3380 -1.7388 -1.6422
 8173SOL     OW25712   5.482   1.423   6.773  0.2764  0.0070 -0.3674
 8173SOL    HW125713   5.566   1.390   6.742 -0.3431 -1.8938 -0.1771
 8173SOL    HW225714   5.499   1.450   6.863  1.5557  3.4545 -1.4786
 8174SOL     OW25715   3.479   1.557   7.174 -0.0025  0.2247 -0.2146
 8174SOL    HW125716   3.564   1.585   7.141 -0.1358  2.0776  0.8460
 8174SOL    HW225717   3.417   1.584   7.107  0.0616  0.8244 -0.0408
 8175SOL     OW25718   0.084   5.002   7.533 -0.4239  0.2495 -0.0280
 8175SOL    HW125719   0.167   5.040   7.562 -0.6100  3.0271 -2.6246
 8175SOL    HW225720   0.020   5.028   7.599  0.3542  0.0918  0.7985
 8176SOL     OW25721   0.242   7.571   2.488  0.3774  0.3538 -0.0256
 8176SOL    HW125722   0.332   7.559   2.521  0.2704  0.3694  0.2764
 8176SOL    HW225723   0.187   7.550   2.563  0.1240  0.2125 -0.2513
 8177SOL     OW25724   7.183   8.213   4.402  0.5668 -0.3457  0.0726
 8177SOL    HW125725   7.209   8.126   4.373 -0.6891 -0.2837 -1.3463
 8177SOL    HW225726   7.177   8.206   4.498 -0.0760 -1.9813 -0.0639
 8178SOL     OW25727   0.049   3.413   2.495  0.5643 -0.3730  0.2142
 8178SOL    HW125728   0.020   3.378   2.411 -1.4965  1.3449  0.1574
 8178SOL    HW225729   0.128   3.463   2.474  0.5704 -0.6829 -0.5300
 8179SOL     OW25730   1.527   5.143   3.547  0.3366  0.5053 -0.4555
 8179SOL    HW125731   1.611   5.162   3.504 -0.0440 -0.1958 -1.5519
 8179SOL    HW225732   1.534   5.186   3.633  0.8965  2.4813 -1.4248
 8180SOL     OW25733   1.922   0.454   2.088 -0.1176 -0.2347  0.0230
 8180SOL    HW125734   1.934   0.512   2.163  1.7355  0.5221 -0.7894
 8180SOL    HW225735   2.011   0.440   2.055 -0.7123 -2.0559 -0.9197
 8181SOL     OW25736   0.462   1.313   8.185 -0.1776  0.1034 -0.1127
 8181SOL    HW125737   0.475   1.218   8.177  1.2719  0.2820 -0.1230
 8181SOL    HW225738   0.388   1.322   8.246  1.0269 -1.0319  1.6307
 8182SOL     OW25739   2.570   8.270   1.789 -0.0280  0.1857 -0.0184
 8182SOL    HW125740   2.504   8.258   1.720  0.4264 -0.9819 -0.2768
 8182SOL    HW225741   2.583   8.182   1.825  0.2890  0.6575  1.0642
 8183SOL     OW25742   4.765   3.009   4.259 -0.7232 -0.3182 -0.0419
 8183SOL    HW125743   4.812   3.058   4.326  0.0539 -2.1337  0.7966
 8183SOL    HW225744   4.687   3.062   4.241  0.9968  2.2292 -0.6599
 8184SOL     OW25745   6.336   8.205   1.974 -0.1789 -0.5092  0.0577
 8184SOL    HW125746   6.368   8.295   1.964  1.7772 -1.0212  1.1014
 8184SOL    HW225747   6.290   8.205   2.058  0.6284 -0.6495  0.5186
 8185SOL     OW25748   5.897   1.560   4.050 -0.7868 -0.2013 -0.0334
 8185SOL    HW125749   5.941   1.632   4.095 -1.1901  0.8390 -1.2574
 8185SOL    HW225750   5.847   1.602   3.980 -1.3524 -1.6375 -0.5306
 8186SOL     OW25751   1.367   5.090   5.764  0.2462 -0.0092 -0.4941
 8186SOL    HW125752   1.392   4.999   5.752 -0.2899 -0.4956  1.5561
 8186SOL    HW225753   1.433   5.125   5.824 -2.0037 -0.4548  2.5209
 8187SOL     OW25754   5.834   7.411   0.288 -0.2814 -0.1569  0.0215
 8187SOL    HW125755   5.847   7.497   0.328  0.4174 -0.2768  0.0649
 8187SOL    HW225756   5.885   7.351   0.343 -1.4469 -0.7431  0.5044
 8188SOL     OW25757   5.764   7.666   0.897  0.3353  0.1572 -0.0678
 8188SOL    HW125758   5.727   7.592   0.945  1.5704  0.4206  1.3699
 8188SOL    HW225759   5.713   7.741   0.927 -0.0092  0.0895 -0.4758
 8189SOL     OW25760   1.098   0.065   3.329  0.4687  0.1623 -0.1315
 8189SOL    HW125761   1.072   0.078   3.420 -0.4761 -0.7634 -0.2546
 8189SOL    HW225762   1.043  -0.007   3.298  1.5650 -0.3004 -1.1006
 8190SOL     OW25763   5.768   3.539   2.778  0.2004  0.1780 -0.3950
 8190SOL    HW125764   5.697   3.593   2.813  1.7116  2.1912 -0.2944
 8190SOL    HW225765   5.751   3.535   2.684  0.8232  2.0516 -0.6140
 8191SOL     OW25766   0.888   6.661   5.633 -0.5592 -0.0287  0.1403
 8191SOL    HW125767   0.857   6.673   5.723 -1.7685  0.4852 -0.3181
 8191SOL    HW225768   0.970   6.710   5.629 -0.9949  0.7721  0.7136
 8192SOL     OW25769   3.083   3.710   0.335  0.2597  0.4595 -0.4299
 8192SOL    HW125770   3.123   3.698   0.249  2.9034 -0.5217  0.7985
 8192SOL    HW225771   3.158   3.722   0.394 -1.4281  0.6158  1.8068
 8193SOL     OW25772   2.265   1.289   8.386 -0.5330  0.4387  0.6603
 8193SOL    HW125773   2.234   1.291   8.476 -0.4071 -0.5030  0.7359
 8193SOL    HW225774   2.318   1.210   8.381  0.3629  1.0669  0.0465
 8194SOL     OW25775   2.815   4.046   2.105  0.4890 -0.6171  0.1422
 8194SOL    HW125776   2.829   4.062   2.198 -0.5263 -2.7792  0.7293
 8194SOL    HW225777   2.886   4.093   2.062 -0.2716  2.3380  1.7765
 8195SOL     OW25778   3.200   5.125   0.402  0.3398 -0.5553  0.2120
 8195SOL    HW125779   3.231   5.074   0.327 -0.0665 -0.0049 -0.3370
 8195SOL    HW225780   3.228   5.074   0.478  1.1027 -0.9213 -0.3018
 8196SOL     OW25781   1.386   8.095   5.354  0.2840 -0.4578  0.0701
 8196SOL    HW125782   1.349   8.018   5.397  1.3446 -1.5593 -0.8784
 8196SOL    HW225783   1.456   8.124   5.412  0.4198 -0.7302  0.0455
 8197SOL     OW25784   5.307   3.734   5.316  0.0333 -0.0952  0.2095
 8197SOL    HW125785   5.304   3.828   5.297  0.5513 -0.1314 -0.0842
 8197SOL    HW225786   5.294   3.692   5.231  3.0838 -0.2611 -0.3093
 8198SOL     OW25787   4.155   1.944   1.760 -0.3382  0.4808  0.2098
 8198SOL    HW125788   4.153   1.972   1.668  1.9739  0.8952  0.2237
 8198SOL    HW225789   4.229   1.884   1.765 -1.2829 -0.6275  1.5486
 8199SOL     OW25790   7.515   0.095   1.499  0.1971  0.5197  0.2976
 8199SOL    HW125791   7.562   0.093   1.583 -1.4198  2.0364  1.3217
 8199SOL    HW225792   7.526   0.007   1.463  1.5002  0.0335  1.7739
 8200SOL     OW25793   3.345   5.121   0.026  0.3387 -0.0630 -0.0217
 8200SOL    HW125794   3.299   5.047   0.066  0.0042 -0.3522 -0.9182
 8200SOL    HW225795   3.402   5.154   0.095  0.0109 -0.7492  0.5906
 8201SOL     OW25796   2.726   6.376   7.779  0.0956 -0.3028  0.2445
 8201SOL    HW125797   2.685   6.291   7.761 -1.8021  0.5180  0.4320
 8201SOL    HW225798   2.819   6.356   7.787 -0.3185 -2.4170  0.5498
 8202SOL     OW25799   2.848   6.823   5.724  0.6542  0.0006 -0.0159
 8202SOL    HW125800   2.894   6.895   5.681  1.4070  0.5751  1.6803
 8202SOL    HW225801   2.882   6.823   5.814 -0.3892 -1.5599  0.4149
 8203SOL     OW25802   2.156   8.220   3.401  0.2663 -0.0249 -0.5197
 8203SOL    HW125803   2.118   8.240   3.487  0.9802  0.5159 -0.3283
 8203SOL    HW225804   2.112   8.280   3.341 -1.3000 -1.3769 -0.8052
 8204SOL     OW25805   2.085   4.785   5.365  0.3504 -0.2106  0.0853
 8204SOL    HW125806   2.178   4.808   5.364  0.3141  0.0901 -2.3029
 8204SOL    HW225807   2.040   4.867   5.384  0.5477 -0.4440  1.6906
 8205SOL     OW25808   3.555   0.738   1.116  0.2590 -0.0218 -0.4475
 8205SOL    HW125809   3.553   0.650   1.078  0.6565 -0.7353  1.0939
 8205SOL    HW225810   3.621   0.785   1.065  0.1344 -0.6456 -1.1984
 8206SOL     OW25811   7.351   0.296   5.602  0.0504 -0.2465  0.5404
 8206SOL    HW125812   7.331   0.206   5.577  0.2911 -0.2301  0.2822
 8206SOL    HW225813   7.353   0.344   5.519 -2.8256  0.5833  0.8628
 8207SOL     OW25814   3.537   8.126   3.495  0.2743  0.2765 -0.0242
 8207SOL    HW125815   3.453   8.114   3.538  0.9957 -1.8819  0.9069
 8207SOL    HW225816   3.599   8.144   3.566  0.9216 -0.0306 -0.4985
 8208SOL     OW25817   1.273   5.416   5.389  0.0539  0.2428  0.0658
 8208SOL    HW125818   1.309   5.329   5.406  0.1050  0.0959 -0.7943
 8208SOL    HW225819   1.207   5.403   5.321  0.4976  0.9617 -0.5211
 8209SOL     OW25820   1.227   7.237   7.495  0.3534  0.1023 -0.0423
 8209SOL    HW125821   1.201   7.268   7.408 -1.0098 -2.2121 -0.5288
 8209SOL    HW225822   1.155   7.263   7.553 -0.1043 -0.8195 -0.1784
 8210SOL     OW25823   4.528   4.398   6.987  0.0094  0.3792  0.1361
 8210SOL    HW125824   4.571   4.434   7.066 -2.2774  0.5316  1.4031
 8210SOL    HW225825   4.436   4.420   6.999 -0.7084 -1.4778 -1.5965
 8211SOL     OW25826   1.712   4.058   4.650  0.1797 -0.2336  0.3588
 8211SOL    HW125827   1.797   4.022   4.677  1.1943  0.7067 -1.3692
 8211SOL    HW225828   1.712   4.047   4.555 -0.2233  2.6920 -0.0479
 8212SOL     OW25829   4.410   0.244   2.750 -0.7399 -0.0509  0.5609
 8212SOL    HW125830   4.482   0.199   2.794  1.0928  1.4602 -0.6973
 8212SOL    HW225831   4.375   0.180   2.688  1.7740  0.1134 -1.1640
 8213SOL     OW25832   7.539   5.632   6.552  0.2673 -0.1065  0.6584
 8213SOL    HW125833   7.515   5.724   6.566 -3.2588 -0.7093 -0.4208
 8213SOL    HW225834   7.578   5.605   6.635  0.7419  2.1549  1.2506
 8214SOL     OW25835   2.885   4.369   8.463 -0.1845  0.2534 -0.3701
 8214SOL    HW125836   2.817   4.302   8.465  1.1805 -1.2023 -0.0387
 8214SOL    HW225837   2.892   4.399   8.554  0.9892 -1.1051  0.0191
 8215SOL     OW25838   6.495   3.124   8.510 -0.2195  0.3523 -0.3530
 8215SOL    HW125839   6.533   3.159   8.429 -0.6539  1.8024  0.0553
 8215SOL    HW225840   6.449   3.045   8.481  2.0193 -0.7797 -1.0459
 8216SOL     OW25841   4.512   5.293   4.639 -0.3917  0.2740 -0.2650
 8216SOL    HW125842   4.458   5.222   4.675  0.4291 -0.2068  0.0478
 8216SOL    HW225843   4.450   5.348   4.590 -1.0102 -0.7776 -0.7053
 8217SOL     OW25844   2.580   2.985   6.657  0.0840 -0.2018  0.3585
 8217SOL    HW125845   2.592   2.956   6.748 -2.1680 -0.6889  0.5683
 8217SOL    HW225846   2.641   2.932   6.606 -0.7969 -2.1891  1.2677
 8218SOL     OW25847   3.475   1.748   5.092 -1.0820 -0.1084  0.1754
 8218SOL    HW125848   3.414   1.674   5.085 -1.6745  0.2659  1.1182
 8218SOL    HW225849   3.434   1.807   5.155  0.6966 -0.2794  1.5810
 8219SOL     OW25850   7.524   6.234   3.196  0.1655  0.0149  1.1538
 8219SOL    HW125851   7.557   6.189   3.274  0.3886 -1.8960  0.0355
 8219SOL    HW225852   7.441   6.191   3.177 -1.2203  2.2495  1.7907
 8220SOL     OW25853   3.799   4.982   6.859  0.6420  0.4703  0.1103
 8220SOL    HW125854   3.777   4.998   6.951 -0.5929  1.0219 -0.2592
 8220SOL    HW225855   3.824   4.890   6.855  2.2880  0.8116  1.2689
 8221SOL     OW25856   4.540   7.115   0.182 -0.1808  0.1755  0.8216
 8221SOL    HW125857   4.470   7.051   0.164  0.5969 -0.8493  1.2897
 8221SOL    HW225858   4.553   7.109   0.277  0.3652  0.5440  0.7741
 8222SOL     OW25859   3.312   5.461   3.718  0.4044  0.0481 -0.3195
 8222SOL    HW125860   3.260   5.539   3.734  0.6951  0.0230  0.7808
 8222SOL    HW225861   3.403   5.490   3.726  0.5332 -0.2377 -0.7012
 8223SOL     OW25862   6.586   5.744   0.032 -0.1273 -0.2853  0.2639
 8223SOL    HW125863   6.558   5.827  -0.006  0.7514 -0.3842 -0.6565
 8223SOL    HW225864   6.626   5.768   0.116 -1.3226  0.0342  0.7594
 8224SOL     OW25865   0.390   8.333   4.832  0.0477  0.2201  0.6324
 8224SOL    HW125866   0.446   8.411   4.832  0.6377 -0.1849  1.4611
 8224SOL    HW225867   0.421   8.283   4.756 -0.3018  0.7588  0.1240
 8225SOL     OW25868   2.130   5.684   1.155  0.0995  0.0398  0.0249
 8225SOL    HW125869   2.080   5.761   1.182  0.1901  0.1949 -0.2313
 8225SOL    HW225870   2.068   5.630   1.107 -0.2994 -0.6887  1.3286
 8226SOL     OW25871   7.543   8.586   2.579 -0.7755 -0.1893 -0.4106
 8226SOL    HW125872   7.585   8.615   2.660 -0.8728  1.4443 -0.9051
 8226SOL    HW225873   7.450   8.592   2.596 -0.7984 -0.5026 -0.4237
 8227SOL     OW25874   3.866   8.555   3.432 -0.3742  0.0160 -0.4124
 8227SOL    HW125875   3.908   8.558   3.346 -1.0955 -0.1134 -0.7790
 8227SOL    HW225876   3.878   8.464   3.461  0.1783  0.1471 -0.2081
 8228SOL     OW25877   2.084   3.997   4.893 -0.2427 -0.7935 -0.2702
 8228SOL    HW125878   2.163   3.959   4.855  0.0749 -0.9004  0.4790
 8228SOL    HW225879   2.114   4.041   4.973 -0.6187  0.9834 -1.0789
 8229SOL     OW25880   0.029   1.438   5.284 -0.9537 -0.0544 -0.1776
 8229SOL    HW125881   0.109   1.436   5.231 -0.3350 -0.7611  0.7547
 8229SOL    HW225882  -0.022   1.363   5.253 -0.6640 -0.3729  0.1040
 8230SOL     OW25883   4.230   6.490   3.931  0.3902  0.1414  0.5868
 8230SOL    HW125884   4.223   6.567   3.874 -2.1423  1.5030  2.5335
 8230SOL    HW225885   4.322   6.486   3.954  0.5271  3.0046  0.8815
 8231SOL     OW25886   0.720   6.987   2.130 -0.0241 -0.6226 -0.0583
 8231SOL    HW125887   0.662   7.032   2.069  0.5933  1.4571  0.7762
 8231SOL    HW225888   0.691   7.016   2.217  1.6137 -0.2870  0.4252
 8232SOL     OW25889   3.217   7.160   1.159 -0.2067 -0.0262 -0.0444
 8232SOL    HW125890   3.161   7.225   1.117 -0.2705 -1.2955 -2.0249
 8232SOL    HW225891   3.304   7.173   1.121  0.1217 -0.1803  0.6228
 8233SOL     OW25892   4.055   2.335   4.356 -0.3457  0.3662 -0.0690
 8233SOL    HW125893   4.046   2.239   4.355  1.6923  0.1132 -0.4228
 8233SOL    HW225894   4.049   2.359   4.263  1.0018  0.3162 -0.1916
 8234SOL     OW25895   0.679   8.021   0.500 -0.3623 -0.3139 -0.0877
 8234SOL    HW125896   0.695   7.926   0.496  0.5166 -0.2154  0.7622
 8234SOL    HW225897   0.636   8.041   0.417  0.0984 -1.3415 -0.6013
 8235SOL     OW25898   7.079   1.807   4.016  0.2233  0.4358 -0.4146
 8235SOL    HW125899   7.049   1.832   3.928  1.7980 -0.9772 -1.4056
 8235SOL    HW225900   7.029   1.728   4.036  1.5184 -0.5895 -1.0820
 8236SOL     OW25901   1.477   2.465   6.242  0.0011 -0.0556  0.3823
 8236SOL    HW125902   1.475   2.553   6.204  1.6781 -0.9253 -1.9374
 8236SOL    HW225903   1.409   2.467   6.309  0.0159  3.0045  0.4519
 8237SOL     OW25904   8.443   0.372   6.462 -0.4052  0.1893 -0.4285
 8237SOL    HW125905   8.446   0.357   6.368  0.0379  0.4486 -0.4551
 8237SOL    HW225906   8.353   0.399   6.479  0.0753  2.3871 -1.1188
 8238SOL     OW25907   7.938   7.836   1.144 -0.1823 -0.1012  0.5005
 8238SOL    HW125908   7.885   7.758   1.129 -0.6393  0.4566 -1.0192
 8238SOL    HW225909   7.936   7.882   1.060 -0.1140  1.6529  1.4174
 8239SOL     OW25910   4.853   6.459   1.787 -0.3833 -0.2943 -0.5399
 8239SOL    HW125911   4.851   6.442   1.693  1.7937  1.0620 -0.9126
 8239SOL    HW225912   4.937   6.423   1.816 -1.3574 -1.3912  1.0795
 8240SOL     OW25913   7.072   4.943   6.375  0.0066 -0.0699  0.4710
 8240SOL    HW125914   7.007   4.951   6.305 -0.6799  0.9037  1.1974
 8240SOL    HW225915   7.116   5.028   6.377 -1.5161  0.7411  2.6806
 8241SOL     OW25916   3.623   3.677   1.544  0.4255 -0.5621 -0.0890
 8241SOL    HW125917   3.635   3.688   1.638 -1.5042 -3.4457  0.6269
 8241SOL    HW225918   3.708   3.648   1.512  0.5399 -1.7197  1.2055
 8242SOL     OW25919   7.988   4.636   4.450 -0.1566 -0.2195  0.0624
 8242SOL    HW125920   8.013   4.708   4.392  0.4601 -1.1221 -0.8182
 8242SOL    HW225921   8.071   4.603   4.484 -0.2677 -1.7458 -1.0502
 8243SOL     OW25922   3.646   1.796   1.103  0.0171 -0.3130 -0.5817
 8243SOL    HW125923   3.588   1.835   1.039 -1.3103 -1.0956  0.0995
 8243SOL    HW225924   3.632   1.845   1.184  1.3293  0.3658 -0.7343
 8244SOL     OW25925   0.158   1.172   6.083 -0.3105 -0.1166 -0.6129
 8244SOL    HW125926   0.175   1.172   6.177 -1.0132  0.3406 -0.4720
 8244SOL    HW225927   0.087   1.108   6.072 -1.7597  1.3816 -0.4972
 8245SOL     OW25928   7.572   2.917   1.516  0.1063  0.1595  0.4253
 8245SOL    HW125929   7.486   2.902   1.557 -0.3820  0.7109 -0.3804
 8245SOL    HW225930   7.599   3.003   1.548 -0.1540  0.4746 -0.2007
 8246SOL     OW25931   6.977   2.436   7.262 -0.2687  0.2748  0.1316
 8246SOL    HW125932   6.956   2.433   7.356 -1.3600  0.3530 -0.0981
 8246SOL    HW225933   6.926   2.509   7.229 -1.0719 -0.6699 -0.7979
 8247SOL     OW25934   3.336   5.330   2.503 -0.3227  0.8705  0.6304
 8247SOL    HW125935   3.339   5.249   2.554  0.5298  0.3403 -0.2220
 8247SOL    HW225936   3.428   5.358   2.496 -0.5459  1.5831  0.4029
 8248SOL     OW25937   1.160   3.781   4.787 -0.0877  0.1122 -0.4186
 8248SOL    HW125938   1.254   3.771   4.797 -0.2622 -0.6031  0.6458
 8248SOL    HW225939   1.122   3.733   4.861 -1.2823  0.4926 -0.7551
 8249SOL     OW25940   4.650   2.676   6.559 -0.1320  0.1376 -0.4318
 8249SOL    HW125941   4.583   2.608   6.563  0.8610 -0.8590 -0.1209
 8249SOL    HW225942   4.608   2.749   6.514 -1.1891 -0.7195 -0.8727
 8250SOL     OW25943   4.905   4.908   5.708  0.9239 -0.4535 -0.2467
 8250SOL    HW125944   4.845   4.834   5.717 -0.4308  0.4745 -1.2448
 8250SOL    HW225945   4.945   4.917   5.795 -3.0664  1.0865  1.7322
 8251SOL     OW25946   0.217   5.516   4.878  0.0738 -0.0207 -0.0739
 8251SOL    HW125947   0.263   5.493   4.958 -0.2074 -1.9769 -0.4297
 8251SOL    HW225948   0.221   5.612   4.874  1.7200 -0.0029  1.2807
 8252SOL     OW25949   5.872   7.326   4.246 -0.1620 -0.5002 -0.3774
 8252SOL    HW125950   5.844   7.394   4.308 -1.9982 -0.5045 -1.1448
 8252SOL    HW225951   5.856   7.363   4.160 -1.9322 -2.1234 -0.8268
 8253SOL     OW25952   2.596   7.246   7.200  0.0180 -0.5677 -0.0819
 8253SOL    HW125953   2.670   7.212   7.151 -1.1919 -0.4882 -2.0768
 8253SOL    HW225954   2.603   7.341   7.195 -0.7336 -0.5514 -1.1691
 8254SOL     OW25955   5.446   0.296   6.274 -1.0093  0.2654 -0.6272
 8254SOL    HW125956   5.490   0.358   6.216 -1.1014 -0.0733 -1.0656
 8254SOL    HW225957   5.463   0.211   6.236 -1.7662  0.1017 -0.6218
 8255SOL     OW25958   5.276   3.216   0.964  0.1586  0.1504  0.4417
 8255SOL    HW125959   5.357   3.259   0.993 -0.6839  2.6599 -0.7052
 8255SOL    HW225960   5.248   3.266   0.888 -0.3849 -3.1037 -1.7217
 8256SOL     OW25961   0.768   0.186   7.788 -0.4962 -0.1515  0.3792
 8256SOL    HW125962   0.836   0.182   7.854  0.7982  2.5155 -0.6303
 8256SOL    HW225963   0.803   0.136   7.714 -0.7574 -0.8492  0.7161
 8257SOL     OW25964   8.211   3.433   7.778  0.4250  0.1544 -0.1726
 8257SOL    HW125965   8.175   3.349   7.807  0.2352 -0.4108 -1.9085
 8257SOL    HW225966   8.193   3.493   7.850  1.0396 -1.4025  1.3467
 8258SOL     OW25967   6.732   0.490   7.625 -0.1493  0.0751 -0.2629
 8258SOL    HW125968   6.797   0.560   7.631 -0.2371  0.2165 -0.8778
 8258SOL    HW225969   6.656   0.531   7.585 -1.4489  0.4714  2.4202
 8259SOL     OW25970   0.072   1.025   0.762  0.1179 -0.2253  0.3261
 8259SOL    HW125971   0.079   1.095   0.697 -0.3385 -0.5254 -0.0452
 8259SOL    HW225972   0.110   1.063   0.841 -2.8690  1.5802  1.0540
 8260SOL     OW25973   8.510   0.065   1.320 -0.1880  0.2703  0.2724
 8260SOL    HW125974   8.454   0.128   1.366 -0.2481 -0.0639  0.6564
 8260SOL    HW225975   8.594   0.069   1.365  0.5626  1.7703 -1.1385
 8261SOL     OW25976   5.986   4.188   4.153 -0.0400  0.2471 -0.6055
 8261SOL    HW125977   6.018   4.172   4.242 -0.5779 -2.4419 -0.8277
 8261SOL    HW225978   6.059   4.161   4.097 -0.8917 -1.3130 -1.0081
 8262SOL     OW25979   5.082   3.313   5.227  0.0489 -0.2469  0.5354
 8262SOL    HW125980   5.019   3.277   5.165 -0.6215  1.0050  0.4622
 8262SOL    HW225981   5.031   3.326   5.307 -0.0949  1.7652  0.1630
 8263SOL     OW25982   2.749   7.286   5.844 -0.2246 -0.2142  0.0771
 8263SOL    HW125983   2.696   7.357   5.881  0.6884  0.1536  0.7226
 8263SOL    HW225984   2.741   7.215   5.906 -1.6517 -0.9400 -0.8837
 8264SOL     OW25985   2.369   0.347   1.247 -0.1866  0.4464 -0.3109
 8264SOL    HW125986   2.448   0.374   1.200 -0.0114  0.6808  0.1172
 8264SOL    HW225987   2.330   0.280   1.191  1.0408 -0.6705  0.1029
 8265SOL     OW25988   1.480   3.663   0.337 -0.1476 -0.2382  0.5034
 8265SOL    HW125989   1.429   3.664   0.418 -0.5105 -0.3557  0.2786
 8265SOL    HW225990   1.438   3.728   0.281 -1.8299 -2.2752 -0.7506
 8266SOL     OW25991   0.016   7.737   3.735 -0.5604  0.0471 -0.0041
 8266SOL    HW125992   0.093   7.727   3.792 -1.5101 -0.4955  1.2256
 8266SOL    HW225993  -0.054   7.690   3.781 -2.1286  2.1203 -0.1356
 8267SOL     OW25994   8.452   4.067   3.588  0.8978  0.4083  0.7443
 8267SOL    HW125995   8.484   3.990   3.540 -0.8182 -1.4012  2.3411
 8267SOL    HW225996   8.478   4.051   3.678  0.1977  1.5469  1.1565
 8268SOL     OW25997   3.655   6.407   1.112 -0.1464 -0.0229  0.6408
 8268SOL    HW125998   3.618   6.479   1.163 -0.1622  1.1860 -0.9874
 8268SOL    HW225999   3.738   6.440   1.080  0.2440 -1.0565  0.5569
 8269SOL     OW26000   4.738   6.236   8.436 -0.0567  0.1315 -0.1009
 8269SOL    HW126001   4.824   6.230   8.394  0.7405 -0.5120  1.5043
 8269SOL    HW226002   4.736   6.324   8.473 -0.0337  0.1217 -0.0751
 8270SOL     OW26003   5.084   1.389   2.494 -0.3765  0.3890  0.2071
 8270SOL    HW126004   5.113   1.462   2.550 -2.5057  2.3971 -1.1154
 8270SOL    HW226005   5.003   1.358   2.535 -0.2528 -0.2870 -0.0458
 8271SOL     OW26006   8.286   1.140   6.733 -0.3262 -0.5953 -0.1595
 8271SOL    HW126007   8.243   1.165   6.652 -0.5626 -0.9747 -0.1541
 8271SOL    HW226008   8.353   1.207   6.747  2.0259 -2.2663 -2.4173
 8272SOL     OW26009   6.969   0.009   4.235  0.0196  0.3038 -0.1875
 8272SOL    HW126010   7.056  -0.019   4.204 -1.4185 -1.9732 -2.5471
 8272SOL    HW226011   6.970  -0.013   4.328  1.3185 -1.6409 -0.5922
 8273SOL     OW26012   8.110   5.045   1.091  0.2477 -0.2549  0.0031
 8273SOL    HW126013   8.015   5.040   1.093  0.1978  0.3886 -0.5497
 8273SOL    HW226014   8.133   5.097   1.169  0.1255 -0.0944 -0.0684
 8274SOL     OW26015   5.187   0.975   4.545  0.1229 -0.1571 -0.1414
 8274SOL    HW126016   5.182   1.046   4.481  1.3514  0.6220  0.5859
 8274SOL    HW226017   5.262   0.922   4.515  0.7327  0.2379  0.6457
 8275SOL     OW26018   3.264   5.284   4.727  0.1652  0.4862 -0.1892
 8275SOL    HW126019   3.258   5.201   4.774  1.0723 -0.0458 -0.9850
 8275SOL    HW226020   3.357   5.307   4.731  0.1247  0.8153 -1.0673
 8276SOL     OW26021   1.332   3.180   2.566 -0.5132 -0.5675 -0.1913
 8276SOL    HW126022   1.314   3.090   2.537 -0.2706 -1.5028  2.3796
 8276SOL    HW226023   1.426   3.192   2.551 -0.7125 -0.3298 -1.4425
 8277SOL     OW26024   2.517   4.521   4.133 -0.0944 -0.0422 -0.5714
 8277SOL    HW126025   2.433   4.527   4.087 -0.9909  0.3517  1.0509
 8277SOL    HW226026   2.564   4.600   4.108 -1.4116  1.2015  0.7198
 8278SOL     OW26027   3.688   0.370   7.720  0.0046 -0.0287  0.1608
 8278SOL    HW126028   3.633   0.298   7.751  1.9506 -0.7603  2.1407
 8278SOL    HW226029   3.673   0.440   7.783  0.6531  0.0796  0.1962
 8279SOL     OW26030   3.542   3.545   0.081  0.3438 -0.0948 -0.2282
 8279SOL    HW126031   3.505   3.562  -0.006 -0.1413 -1.1365 -0.2405
 8279SOL    HW226032   3.632   3.515   0.063  0.5211  0.4797 -0.3171
 8280SOL     OW26033   5.466   7.533   6.566 -0.4600 -0.5314  0.8544
 8280SOL    HW126034   5.560   7.549   6.559 -0.5553 -0.3370 -0.1082
 8280SOL    HW226035   5.453   7.446   6.529 -0.7713 -0.1651  0.0614
 8281SOL     OW26036   7.613   1.364   4.664  0.2101  0.5590 -0.1451
 8281SOL    HW126037   7.523   1.338   4.684  0.4472  0.7281  1.2226
 8281SOL    HW226038   7.605   1.428   4.594 -0.9928  2.7676  1.8959
 8282SOL     OW26039   2.266   2.030   2.122  0.2601 -0.0996  0.2932
 8282SOL    HW126040   2.287   1.937   2.114 -0.1542 -0.1821  0.1445
 8282SOL    HW226041   2.351   2.073   2.129  0.4477 -0.5090  0.5731
 8283SOL     OW26042   7.722   8.293   4.952  0.2865 -0.1540 -0.0524
 8283SOL    HW126043   7.738   8.368   4.896 -1.7389 -0.2648 -0.8479
 8283SOL    HW226044   7.674   8.231   4.897 -0.5288 -0.8431  1.3616
 8284SOL     OW26045   3.264   3.495   6.724  0.3634 -0.1353  0.2830
 8284SOL    HW126046   3.278   3.581   6.763  0.6847 -0.2050  0.3311
 8284SOL    HW226047   3.231   3.441   6.795  0.8184 -0.2275  0.4276
 8285SOL     OW26048   6.843   5.964   8.561 -0.6862 -0.0636  0.1658
 8285SOL    HW126049   6.859   5.870   8.569  0.0952  0.0712  0.3514
 8285SOL    HW226050   6.821   5.993   8.650 -0.3989  0.0130  0.2143
 8286SOL     OW26051   8.287   1.754   3.509 -0.3188 -0.0593 -0.4758
 8286SOL    HW126052   8.288   1.846   3.533  2.0360 -0.4227  1.0958
 8286SOL    HW226053   8.286   1.755   3.413 -1.7003  1.5322 -0.4981
 8287SOL     OW26054   3.505   1.274   5.382  0.4671 -0.0474  0.2239
 8287SOL    HW126055   3.472   1.202   5.328  1.5169  0.1594 -0.7278
 8287SOL    HW226056   3.531   1.233   5.464  0.2270 -0.6080  0.0203
 8288SOL     OW26057   0.555   7.589   5.521  0.3214  0.4334  0.3663
 8288SOL    HW126058   0.531   7.497   5.529 -1.6378  0.6615 -1.7099
 8288SOL    HW226059   0.620   7.591   5.450  1.5972  0.5335  1.4935
 8289SOL     OW26060   7.276   4.142   1.730 -0.1666  0.1673  0.2018
 8289SOL    HW126061   7.321   4.177   1.653  1.1198  1.9436  1.6775
 8289SOL    HW226062   7.191   4.114   1.696  0.0801  1.5417 -1.7626
 8290SOL     OW26063   5.817   5.396   3.912 -0.1293 -0.8569  0.4928
 8290SOL    HW126064   5.754   5.457   3.875  0.5782  0.2823  1.1074
 8290SOL    HW226065   5.779   5.309   3.897 -1.2555 -0.2597 -0.1995
 8291SOL     OW26066   6.067   0.336   4.074 -0.1785  0.1907 -0.3312
 8291SOL    HW126067   5.990   0.376   4.034 -0.3370 -0.5454 -0.7921
 8291SOL    HW226068   6.077   0.380   4.158 -0.7762  0.6722 -0.5066
 8292SOL     OW26069   0.742   8.478   6.999 -0.0247 -0.1404  0.3156
 8292SOL    HW126070   0.683   8.553   7.001 -0.7675 -0.7201  0.7117
 8292SOL    HW226071   0.691   8.406   7.036  0.6976 -0.8264  0.0174
 8293SOL     OW26072   3.289   2.068   7.315  0.4670 -0.0257  0.1835
 8293SOL    HW126073   3.346   2.070   7.391  0.0908  1.5937  0.4633
 8293SOL    HW226074   3.200   2.070   7.351  0.2833  2.1624 -0.2496
 8294SOL     OW26075   2.115   0.556   5.995  0.0572 -0.2867  0.1923
 8294SOL    HW126076   2.037   0.535   6.047 -0.3900 -0.6200 -0.5908
 8294SOL    HW226077   2.082   0.609   5.923  0.6182 -0.0906  0.0785
 8295SOL     OW26078   2.941   7.516   8.560  0.0367 -0.1299  0.1614
 8295SOL    HW126079   2.868   7.533   8.499 -0.0043  1.1702  0.5486
 8295SOL    HW226080   3.011   7.482   8.504 -0.0090  1.0189 -0.6455
 8296SOL     OW26081   6.998   2.502   8.467  0.1087 -0.2443  0.0945
 8296SOL    HW126082   7.066   2.446   8.505 -1.0538 -1.4608  0.4701
 8296SOL    HW226083   6.960   2.547   8.542 -0.4939 -0.7309  0.0942
 8297SOL     OW26084   5.708   6.968   2.484  0.4347 -0.0448 -0.1971
 8297SOL    HW126085   5.641   6.990   2.549 -0.0174  1.6973 -1.2011
 8297SOL    HW226086   5.662   6.967   2.400  1.4998  0.3649 -0.8021
 8298SOL     OW26087   2.447   1.838   1.218 -0.0595  0.6658 -0.0994
 8298SOL    HW126088   2.493   1.770   1.267  0.3881  0.3952 -0.8819
 8298SOL    HW226089   2.420   1.901   1.285 -2.9313 -1.5673  1.0914
 8299SOL     OW26090   7.045   5.766   6.275 -0.7291 -0.2189  0.0629
 8299SOL    HW126091   7.036   5.740   6.367  1.1330 -1.7531 -0.1299
 8299SOL    HW226092   7.037   5.684   6.227 -2.2954  0.6501 -1.2385
 8300SOL     OW26093   1.472   7.182   7.387 -0.3633 -0.9157 -0.0175
 8300SOL    HW126094   1.392   7.215   7.427 -0.2174  0.2548 -0.6587
 8300SOL    HW226095   1.522   7.146   7.460 -0.2593  0.8350  0.8238
 8301SOL     OW26096   8.340   0.241   4.148 -0.6683 -0.5852  0.4679
 8301SOL    HW126097   8.372   0.315   4.097 -1.5112  0.9167  1.9807
 8301SOL    HW226098   8.318   0.174   4.084  0.9838  0.1160 -0.8938
 8302SOL     OW26099   7.388   8.122   6.493 -0.3951 -0.4031  0.1074
 8302SOL    HW126100   7.380   8.194   6.556 -0.8009 -1.2654  1.0673
 8302SOL    HW226101   7.374   8.043   6.545  1.3221 -1.2780 -0.6658
 8303SOL     OW26102   5.879   7.257   2.230 -0.4784 -0.0868 -0.4786
 8303SOL    HW126103   5.887   7.175   2.279 -0.9649  0.8793  1.2976
 8303SOL    HW226104   5.965   7.269   2.190 -0.9633 -2.4434 -2.4748
 8304SOL     OW26105   8.571   4.973   6.407  0.1530 -0.6028  0.0133
 8304SOL    HW126106   8.520   4.916   6.350 -1.4192 -0.0351  0.8001
 8304SOL    HW226107   8.517   5.051   6.419  0.9344 -0.2215  1.3745
 8305SOL     OW26108   0.085   0.527   7.453  0.0695  0.5034  0.2707
 8305SOL    HW126109   0.137   0.544   7.375  0.5076 -2.2047 -0.1279
 8305SOL    HW226110   0.148   0.491   7.516 -0.9289 -1.0202  0.4497
 8306SOL     OW26111   1.606   4.713   2.565 -0.0164 -0.6068 -0.0809
 8306SOL    HW126112   1.646   4.779   2.508  0.1629 -0.9228 -0.3294
 8306SOL    HW226113   1.533   4.758   2.607  0.4768 -0.0788  0.2188
 8307SOL     OW26114   0.137   7.267   5.277 -0.5180  0.1842 -0.4456
 8307SOL    HW126115   0.131   7.358   5.248 -0.2878  0.0929 -0.7734
 8307SOL    HW226116   0.091   7.266   5.362  0.3315  0.8075  0.0335
 8308SOL     OW26117   7.858   6.552   7.513 -0.1416  0.5525 -0.2826
 8308SOL    HW126118   7.849   6.461   7.484  0.4174  0.3868  0.0508
 8308SOL    HW226119   7.944   6.556   7.556  0.3692  1.5358 -1.3454
 8309SOL     OW26120   1.432   1.946   4.187 -0.1313 -0.5069  0.4205
 8309SOL    HW126121   1.380   1.912   4.115  0.0884  3.0902 -1.6653
 8309SOL    HW226122   1.383   2.023   4.218  2.0264  0.7273  0.9700
 8310SOL     OW26123   7.350   0.763   3.689 -0.7551 -0.3247 -0.2709
 8310SOL    HW126124   7.441   0.746   3.712 -1.0654 -1.1296  0.4010
 8310SOL    HW226125   7.331   0.849   3.727  0.0375  0.3761 -1.3906
 8311SOL     OW26126   2.362   2.177   8.044 -0.0654  0.3794  0.2348
 8311SOL    HW126127   2.332   2.087   8.054  1.1871 -0.1257 -0.3473
 8311SOL    HW226128   2.287   2.224   8.008 -0.6284 -0.5047  0.2379
 8312SOL     OW26129   3.581   1.732   3.240  0.2732  0.4416 -0.2849
 8312SOL    HW126130   3.662   1.681   3.247  0.4170  0.5441 -1.0455
 8312SOL    HW226131   3.543   1.703   3.157 -0.8495 -0.1462  0.4174
 8313SOL     OW26132   7.663   6.305   2.452  0.1684 -0.1134  0.5067
 8313SOL    HW126133   7.591   6.301   2.514  1.4104  0.6646  2.0714
 8313SOL    HW226134   7.730   6.248   2.490  0.8418  0.1423 -0.2753
 8314SOL     OW26135   1.185   6.921   3.454 -0.9195  0.5933 -0.5278
 8314SOL    HW126136   1.224   6.983   3.393 -0.2576  1.0706  0.3591
 8314SOL    HW226137   1.097   6.906   3.420 -0.0914 -0.2654 -2.3961
 8315SOL     OW26138   4.901   0.387   6.423 -0.0479 -0.5558 -0.7032
 8315SOL    HW126139   4.938   0.315   6.371 -0.5644 -1.9887  0.8419
 8315SOL    HW226140   4.974   0.447   6.435 -0.2286  0.6490 -4.2775
 8316SOL     OW26141   1.867   6.942   0.800  0.1471 -0.7035  0.6104
 8316SOL    HW126142   1.816   6.861   0.802 -1.6659  0.3931  1.2837
 8316SOL    HW226143   1.953   6.917   0.834 -0.5621 -2.2146  1.4150
 8317SOL     OW26144   7.517   1.257   5.882 -0.0236  0.1304  0.1522
 8317SOL    HW126145   7.528   1.208   5.964  0.9172  2.1251  1.2844
 8317SOL    HW226146   7.500   1.190   5.817 -0.0624 -1.5994  1.8439
 8318SOL     OW26147   8.220   5.067   5.175 -0.8547  0.2561 -0.1987
 8318SOL    HW126148   8.129   5.079   5.203 -0.6123  1.9610 -0.0630
 8318SOL    HW226149   8.250   5.155   5.151  1.1542 -0.0591  0.9584
 8319SOL     OW26150   0.085   7.115   8.457  0.2299  0.2851  0.8082
 8319SOL    HW126151   0.113   7.082   8.542 -0.8973 -1.0460  0.7075
 8319SOL    HW226152   0.041   7.197   8.476  1.7467  1.0284  1.2544
 8320SOL     OW26153   5.884   1.928   3.355 -0.2788 -0.0688  0.2602
 8320SOL    HW126154   5.888   2.017   3.389  0.2813 -0.2686  0.7381
 8320SOL    HW226155   5.797   1.921   3.314 -1.0088  0.1727  1.6942
 8321SOL     OW26156   8.512   0.611   2.258  0.4575  0.3650  0.2252
 8321SOL    HW126157   8.593   0.582   2.217  0.7332  1.7933 -0.2935
 8321SOL    HW226158   8.465   0.530   2.278  0.9903 -0.4415 -1.5528
 8322SOL     OW26159   1.076   1.743   2.498 -0.6114  0.2628  0.2512
 8322SOL    HW126160   1.028   1.819   2.530 -0.0377  0.8547 -0.2698
 8322SOL    HW226161   1.132   1.718   2.572 -1.1490  0.0426  0.5900
 8323SOL     OW26162   4.032   3.489   7.494 -0.1237  0.0636  0.5250
 8323SOL    HW126163   4.058   3.425   7.561  0.6981  0.3838  0.5212
 8323SOL    HW226164   3.961   3.539   7.535  0.0809 -0.0255  0.9919
 8324SOL     OW26165   3.149   3.043   2.480 -0.8674  0.2083  0.0670
 8324SOL    HW126166   3.169   3.066   2.389 -0.8729 -0.2222 -0.0487
 8324SOL    HW226167   3.059   3.010   2.477 -0.1249 -1.9929 -0.2021
 8325SOL     OW26168   7.639   6.291   1.627 -0.1123  0.7901 -0.0777
 8325SOL    HW126169   7.732   6.267   1.620 -0.2855  0.6784 -3.0131
 8325SOL    HW226170   7.612   6.310   1.537 -2.9553  0.8556  0.7028
 8326SOL     OW26171   4.901   6.747   0.954 -0.3447  0.2650  0.2777
 8326SOL    HW126172   4.864   6.815   0.897  1.4915  2.6166  1.6788
 8326SOL    HW226173   4.957   6.695   0.896 -2.4288 -0.7142 -0.9987
 8327SOL     OW26174   7.474   3.885   0.409 -0.2936  0.2968 -0.1554
 8327SOL    HW126175   7.474   3.920   0.320 -1.2127 -1.4245 -0.8905
 8327SOL    HW226176   7.386   3.849   0.421  0.3019 -0.9405  0.8407
 8328SOL     OW26177   5.594   0.995   3.794 -0.0081  0.9028 -0.0721
 8328SOL    HW126178   5.672   1.049   3.788 -0.3253  1.6281  1.7223
 8328SOL    HW226179   5.615   0.929   3.860 -0.9713  1.2559  0.6157
 8329SOL     OW26180   4.885   5.785   7.002  0.3418 -0.3774 -0.7951
 8329SOL    HW126181   4.810   5.744   7.045  0.0600 -0.1086 -1.0281
 8329SOL    HW226182   4.849   5.822   6.921  0.4017  1.0829 -0.1907
 8330SOL     OW26183   4.103   4.392   1.278  0.2349 -0.2017 -0.5583
 8330SOL    HW126184   4.079   4.300   1.285  0.4487 -0.3301 -1.4144
 8330SOL    HW226185   4.121   4.419   1.368 -1.7466 -0.4633 -0.0337
 8331SOL     OW26186   1.689   1.987   7.700  0.1045 -0.2103  0.6754
 8331SOL    HW126187   1.687   1.894   7.721  0.0068 -0.1614  0.8849
 8331SOL    HW226188   1.620   1.998   7.634 -0.0761 -0.2339  0.8619
 8332SOL     OW26189   8.578   4.105   5.375 -0.9681  0.3588 -0.1078
 8332SOL    HW126190   8.575   4.042   5.302 -0.8833  1.3102 -0.9580
 8332SOL    HW226191   8.653   4.077   5.427  2.1277  2.3914 -3.0109
 8333SOL     OW26192   7.715   2.006   3.026 -0.7365 -0.1562 -0.1020
 8333SOL    HW126193   7.704   2.073   3.093 -0.7153  0.5401 -0.7702
 8333SOL    HW226194   7.807   1.980   3.032 -1.3541 -2.2550  2.0688
 8334SOL     OW26195   3.939   8.507   6.796  0.1073 -0.0236 -0.4913
 8334SOL    HW126196   3.897   8.476   6.876  0.5815 -0.6172 -0.4642
 8334SOL    HW226197   3.994   8.579   6.825 -0.3962  0.3432 -0.4274
 8335SOL     OW26198   1.604   5.835   4.431 -0.1231  0.5440  0.2001
 8335SOL    HW126199   1.576   5.743   4.433 -1.0905  0.7720 -1.1930
 8335SOL    HW226200   1.586   5.863   4.342  0.7222  1.9344  0.4439
 8336SOL     OW26201   3.286   8.370   0.795  0.0212  0.0253  0.0397
 8336SOL    HW126202   3.289   8.282   0.757  2.5257  0.8373 -1.9623
 8336SOL    HW226203   3.346   8.367   0.869  0.6457  0.1912 -0.4511
 8337SOL     OW26204   6.541   1.363   3.296  0.3690  0.2037 -0.0399
 8337SOL    HW126205   6.526   1.272   3.270 -0.2691  0.0737  0.7561
 8337SOL    HW226206   6.599   1.397   3.228 -1.0362 -0.1888 -1.5185
 8338SOL     OW26207   4.944   4.306   3.942 -0.2376  0.2277 -0.2341
 8338SOL    HW126208   4.955   4.361   3.865 -1.3273 -0.1222 -0.6579
 8338SOL    HW226209   4.852   4.314   3.965 -0.1501 -0.4592  0.4345
 8339SOL     OW26210   8.182   1.289   4.567  0.4793  0.3931 -0.4242
 8339SOL    HW126211   8.129   1.353   4.520  0.9709 -0.2461 -1.9139
 8339SOL    HW226212   8.242   1.254   4.500 -0.3282 -2.2222  0.1104
 8340SOL     OW26213   1.516   3.789   2.153  0.4128 -0.1524 -0.3983
 8340SOL    HW126214   1.566   3.795   2.234 -0.5898  1.3566  0.1590
 8340SOL    HW226215   1.467   3.708   2.161  0.2459  0.0323  0.5664
 8341SOL     OW26216   3.615   1.960   1.331  0.5272  0.5336 -0.5805
 8341SOL    HW126217   3.553   1.973   1.403  2.2442  1.9908  0.7323
 8341SOL    HW226218   3.609   2.040   1.279  2.0767  1.2128  0.2233
 8342SOL     OW26219   1.860   6.596   1.481 -0.0584  0.1324 -0.2308
 8342SOL    HW126220   1.860   6.614   1.387 -0.9308 -0.6452 -0.3892
 8342SOL    HW226221   1.821   6.509   1.489  2.5145 -1.0512  0.6257
 8343SOL     OW26222   5.413   0.657   0.359  0.2915  0.7536  0.5791
 8343SOL    HW126223   5.332   0.632   0.314  0.0505  1.4989  0.5947
 8343SOL    HW226224   5.448   0.574   0.392 -1.6157  0.6583  2.5388
 8344SOL     OW26225   4.897   1.187   2.579  0.5944 -0.4230 -0.1449
 8344SOL    HW126226   4.804   1.166   2.587  0.3040  0.5676 -0.7349
 8344SOL    HW226227   4.925   1.211   2.667  0.2782 -0.6594  0.0194
 8345SOL     OW26228   7.500   1.985   8.383  0.1935  0.2525  0.0896
 8345SOL    HW126229   7.421   1.997   8.330  0.3124 -0.9379 -0.3935
 8345SOL    HW226230   7.470   1.998   8.473 -0.7212 -0.7744 -0.0299
 8346SOL     OW26231   2.721   6.463   0.317  0.3376  0.0687  0.0915
 8346SOL    HW126232   2.712   6.535   0.380 -0.1632  0.1760 -0.0961
 8346SOL    HW226233   2.652   6.401   0.341  0.0189  0.1996 -0.4564
 8347SOL     OW26234   6.764   3.440   0.736  0.2957  0.1856 -0.2639
 8347SOL    HW126235   6.766   3.397   0.822  2.0182  0.5485 -0.0922
 8347SOL    HW226236   6.719   3.523   0.752  0.1490  0.0257  0.1798
 8348SOL     OW26237   7.595   3.295   0.888  0.1642  0.4155 -0.0643
 8348SOL    HW126238   7.576   3.330   0.975  1.1422 -1.2695  0.8750
 8348SOL    HW226239   7.552   3.356   0.828 -1.4752  1.0255  1.6222
 8349SOL     OW26240   1.393   8.003   3.380 -0.0664 -0.2949 -0.0237
 8349SOL    HW126241   1.483   7.988   3.409 -0.0138  3.5140  2.6097
 8349SOL    HW226242   1.339   7.969   3.451 -0.4839  0.2495 -0.0690
 8350SOL     OW26243   0.166   2.078   3.701 -0.0320  0.1524  0.4960
 8350SOL    HW126244   0.084   2.037   3.729 -0.3163  0.1794 -0.2663
 8350SOL    HW226245   0.146   2.114   3.614  1.5364 -2.3135 -1.0265
 8351SOL     OW26246   3.297   4.085   2.644 -0.1654  0.3698  0.1429
 8351SOL    HW126247   3.280   4.048   2.558 -0.6629 -0.2742  0.5101
 8351SOL    HW226248   3.388   4.062   2.663 -0.1375  0.2851 -0.0978
 8352SOL     OW26249   8.016   3.011   4.176  0.0251  0.6157  0.6305
 8352SOL    HW126250   8.055   2.928   4.202  0.8983  1.3837  1.9157
 8352SOL    HW226251   7.956   3.034   4.247 -0.9617  0.6307 -0.1759
 8353SOL     OW26252   8.141   1.720   5.860  0.3270 -0.2072  0.1429
 8353SOL    HW126253   8.192   1.645   5.892  0.9384 -0.3645 -1.1381
 8353SOL    HW226254   8.050   1.693   5.872  0.5326 -0.7083  0.6765
 8354SOL     OW26255   1.656   0.958   4.279 -0.2318 -0.0067  0.3690
 8354SOL    HW126256   1.743   0.922   4.298 -1.0100 -1.0555  2.1279
 8354SOL    HW226257   1.641   1.023   4.347  0.3507  2.4165 -1.6667
 8355SOL     OW26258   5.934   3.936   5.631 -0.1358  0.6505  0.2060
 8355SOL    HW126259   5.868   3.890   5.683  0.3369  0.6966  0.8610
 8355SOL    HW226260   5.914   4.029   5.645 -1.2058  0.6732 -1.2650
 8356SOL     OW26261   6.920   3.995   1.274 -0.4058 -0.1368  0.1126
 8356SOL    HW126262   6.844   4.014   1.329 -2.2039 -0.4568 -2.1318
 8356SOL    HW226263   6.898   3.913   1.230  0.6797  0.4006 -1.5050
 8357SOL     OW26264   0.009   0.279   1.020 -1.0108 -0.1796 -0.5727
 8357SOL    HW126265   0.090   0.238   1.052 -0.8335  0.3879 -0.2855
 8357SOL    HW226266   0.008   0.260   0.926  0.6077  1.6933 -1.0310
 8358SOL     OW26267   4.849   1.936   0.504 -0.1572 -0.0960 -0.0070
 8358SOL    HW126268   4.831   1.936   0.410 -0.2853 -2.0721 -0.0225
 8358SOL    HW226269   4.804   2.014   0.537 -0.0363  0.6815 -1.5709
 8359SOL     OW26270   5.304   6.003   5.795 -0.2880 -0.2630 -1.0512
 8359SOL    HW126271   5.272   5.912   5.799 -1.2664 -0.0839 -3.2737
 8359SOL    HW226272   5.229   6.053   5.762  0.5326  1.2050 -0.7482
 8360SOL     OW26273   2.384   6.876   4.118  0.1868 -0.6674  0.3159
 8360SOL    HW126274   2.414   6.814   4.052 -0.0080 -0.3784 -0.0470
 8360SOL    HW226275   2.315   6.926   4.075  0.5780  0.0358  0.4914
 8361SOL     OW26276   5.771   6.051   0.227  0.0682  0.2947 -0.7331
 8361SOL    HW126277   5.861   6.037   0.199  0.1126 -1.6845  0.2348
 8361SOL    HW226278   5.728   5.967   0.212 -1.5964  1.1603 -1.0355
 8362SOL     OW26279   4.883   2.300   7.102  0.1736  0.1019 -0.1159
 8362SOL    HW126280   4.880   2.393   7.123 -2.2823 -0.2059  1.1756
 8362SOL    HW226281   4.875   2.297   7.007  0.7157  1.2069 -0.2130
 8363SOL     OW26282   6.078   2.807   3.865  0.4453  0.3310  0.0972
 8363SOL    HW126283   6.138   2.880   3.877  1.9342 -0.7946 -0.2236
 8363SOL    HW226284   6.124   2.731   3.902 -1.0894 -0.4463  0.5058
 8364SOL     OW26285   6.379   5.158   1.652 -0.3851  0.0267 -0.3187
 8364SOL    HW126286   6.307   5.131   1.709 -0.0031 -2.1417 -0.7790
 8364SOL    HW226287   6.455   5.167   1.711 -0.3929 -0.4496 -0.2384
 8365SOL     OW26288   3.805   4.499   1.746  0.2805 -0.2302 -0.0803
 8365SOL    HW126289   3.836   4.434   1.684 -1.4619 -1.4245  0.2276
 8365SOL    HW226290   3.732   4.542   1.702  0.2542  0.2637  0.4275
 8366SOL     OW26291   1.566   3.301   6.283  0.3907 -0.0180  0.1838
 8366SOL    HW126292   1.503   3.236   6.313  1.7650 -1.6587 -0.3279
 8366SOL    HW226293   1.524   3.342   6.207 -1.2406  1.0317  1.5681
 8367SOL     OW26294   5.487   1.970   6.375 -0.3893  0.2165  0.2242
 8367SOL    HW126295   5.408   2.018   6.397 -0.6115  0.0742 -0.2483
 8367SOL    HW226296   5.523   1.942   6.459 -0.0704  1.4857  0.5420
 8368SOL     OW26297   6.623   2.581   1.336 -0.5237  0.3402  0.8050
 8368SOL    HW126298   6.678   2.655   1.309 -0.2132  0.0031  0.4892
 8368SOL    HW226299   6.624   2.523   1.260  0.2534 -0.5686  1.4925
 8369SOL     OW26300   7.320   4.301   6.068  0.8433 -0.4734 -0.0266
 8369SOL    HW126301   7.301   4.391   6.093  2.3214 -0.0972 -0.1725
 8369SOL    HW226302   7.400   4.279   6.116  1.8601 -0.8658 -1.8044
 8370SOL     OW26303   1.742   3.751   3.168  0.4664  0.0799  0.2483
 8370SOL    HW126304   1.749   3.673   3.223 -0.3229 -0.6058 -0.5928
 8370SOL    HW226305   1.649   3.756   3.145  0.6820  0.6834 -0.5375
 8371SOL     OW26306   0.652   0.942   8.461 -0.3442 -0.0956  0.2302
 8371SOL    HW126307   0.658   0.860   8.509  0.6558  0.2981  0.8138
 8371SOL    HW226308   0.743   0.969   8.449 -0.4435 -0.7205 -2.8637
 8372SOL     OW26309   1.206   0.126   4.325  0.0633 -0.6219  0.3887
 8372SOL    HW126310   1.119   0.089   4.343 -0.4522  1.1085  1.7902
 8372SOL    HW226311   1.189   0.200   4.267  0.8612 -1.4437 -0.9270
 8373SOL     OW26312   0.539   8.531   4.213 -0.6191 -0.1233  0.0474
 8373SOL    HW126313   0.537   8.617   4.170 -0.1416 -0.7969 -1.3928
 8373SOL    HW226314   0.528   8.550   4.306 -1.5525  1.4162 -0.3428
 8374SOL     OW26315   2.344   7.435   5.282  0.2971 -0.2376 -0.0253
 8374SOL    HW126316   2.406   7.418   5.353 -0.2451 -1.9830  0.0891
 8374SOL    HW226317   2.290   7.356   5.279 -1.3711  0.8858 -0.6740
 8375SOL     OW26318   7.428   1.874   2.335  0.1952  0.8088 -0.3682
 8375SOL    HW126319   7.458   1.797   2.286 -1.5819 -0.1412 -0.0230
 8375SOL    HW226320   7.507   1.904   2.381  0.8196 -1.1634 -0.0377
 8376SOL     OW26321   6.394   2.571   1.718  0.0743  0.0293  0.1072
 8376SOL    HW126322   6.373   2.537   1.630  0.2337 -1.0159  0.4645
 8376SOL    HW226323   6.486   2.596   1.713 -0.1768  0.9446 -0.3079
 8377SOL     OW26324   0.098   1.580   4.995  0.4632 -0.1977 -0.3113
 8377SOL    HW126325   0.073   1.488   5.002  0.1374 -0.0709  0.1949
 8377SOL    HW226326   0.164   1.581   4.926  1.6686 -1.0545  0.7812
 8378SOL     OW26327   6.813   4.388   0.010  0.7276 -0.2351  0.3183
 8378SOL    HW126328   6.761   4.351   0.082 -2.1987  0.8859 -1.0584
 8378SOL    HW226329   6.881   4.323  -0.006 -1.7500 -3.1373  0.6298
 8379SOL     OW26330   7.671   3.036   2.092  0.2713 -0.1544 -0.0405
 8379SOL    HW126331   7.656   3.113   2.148  0.0282  0.1419 -0.4962
 8379SOL    HW226332   7.609   2.971   2.125 -1.6101  0.8067 -1.4161
 8380SOL     OW26333   4.897   1.914   7.283  0.1989  0.0459 -0.1237
 8380SOL    HW126334   4.855   1.988   7.239  2.1997  1.9801  1.0075
 8380SOL    HW226335   4.938   1.864   7.212 -1.0278  0.0664 -0.8818
 8381SOL     OW26336   6.707   8.111   3.135 -0.6016  0.4000 -0.6123
 8381SOL    HW126337   6.707   8.203   3.110  0.0399  0.8236  0.8089
 8381SOL    HW226338   6.630   8.102   3.192  0.4233  0.5715  0.8635
 8382SOL     OW26339   3.207   4.972   3.540 -0.6292 -0.0647  0.3638
 8382SOL    HW126340   3.269   5.028   3.494 -0.4825  0.5130  1.2405
 8382SOL    HW226341   3.161   5.031   3.600 -0.1091 -0.9488  1.6800
 8383SOL     OW26342   4.220   2.461   3.620 -0.3636 -0.2581  0.0594
 8383SOL    HW126343   4.223   2.556   3.631  0.3409 -0.1569 -0.9432
 8383SOL    HW226344   4.223   2.427   3.710  0.3664  0.6472  0.3976
 8384SOL     OW26345   8.399   4.175   7.266  0.8498  0.6196  0.7848
 8384SOL    HW126346   8.451   4.226   7.204  1.8678 -0.4545  0.7386
 8384SOL    HW226347   8.340   4.240   7.305  1.4288  1.6504  0.0132
 8385SOL     OW26348   3.897   0.740   0.947  0.5707  0.3175  0.2119
 8385SOL    HW126349   3.976   0.788   0.922  0.6064  0.5835  0.8168
 8385SOL    HW226350   3.888   0.672   0.880  0.5996  1.0771 -0.5710
 8386SOL     OW26351   4.123   3.189   2.603 -0.5752 -0.0916  0.3666
 8386SOL    HW126352   4.181   3.247   2.553 -1.6990  0.2761 -0.5801
 8386SOL    HW226353   4.082   3.133   2.537 -1.4384 -0.2049  0.9729
 8387SOL     OW26354   6.189   5.313   4.964 -0.2753 -0.1442 -0.2620
 8387SOL    HW126355   6.204   5.405   4.941  0.5844 -0.6233 -1.8033
 8387SOL    HW226356   6.273   5.283   4.998 -0.5052 -0.4067  0.0811
 8388SOL     OW26357   1.980   5.809   4.360 -0.2017  0.3578 -0.0075
 8388SOL    HW126358   1.990   5.785   4.452 -0.6344  0.3049  0.0320
 8388SOL    HW226359   1.986   5.905   4.360  1.0271  0.2934 -0.0992
 8389SOL     OW26360   2.545   1.176   0.990  0.1443  0.3331 -0.1188
 8389SOL    HW126361   2.479   1.239   0.963 -0.2082  0.0955  0.1720
 8389SOL    HW226362   2.495   1.104   1.029  0.6176  0.5404  0.8930
 8390SOL     OW26363   3.666   5.628   5.019 -0.6752  0.1780 -0.2736
 8390SOL    HW126364   3.754   5.590   5.014  0.3179  2.3263  0.0582
 8390SOL    HW226365   3.630   5.614   4.931  0.4812  0.3533 -0.8018
 8391SOL     OW26366   8.202   0.550   1.658 -0.1262 -0.1147  0.2255
 8391SOL    HW126367   8.129   0.548   1.596 -0.0545  0.7400  0.1045
 8391SOL    HW226368   8.173   0.493   1.730  0.4584 -2.4475 -1.2790
 8392SOL     OW26369   4.161   8.338   8.067 -0.0911  0.4875  0.6203
 8392SOL    HW126370   4.170   8.433   8.065  1.4339  0.3519 -1.3901
 8392SOL    HW226371   4.213   8.307   7.993 -0.3875 -1.9401  1.3487
 8393SOL     OW26372   8.554   7.556   8.451  0.0232  0.1571  0.2202
 8393SOL    HW126373   8.628   7.536   8.393 -0.7425  1.3912 -1.2424
 8393SOL    HW226374   8.536   7.473   8.496 -0.1429 -1.2104 -2.2334
 8394SOL     OW26375   6.716   5.949   6.429  0.5661 -0.6351  0.2824
 8394SOL    HW126376   6.783   6.016   6.419 -1.9860  1.8024 -2.1608
 8394SOL    HW226377   6.653   5.987   6.490  0.2741 -1.8841  0.7787
 8395SOL     OW26378   6.240   0.534   6.506  0.2299  0.4252 -0.0088
 8395SOL    HW126379   6.193   0.617   6.508 -0.5592 -0.0131  0.2013
 8395SOL    HW226380   6.177   0.472   6.468 -0.1746 -0.6507  2.2450
 8396SOL     OW26381   5.353   3.420   0.351  0.1783 -0.5110  0.1739
 8396SOL    HW126382   5.374   3.511   0.367  0.9304 -0.3526 -1.4945
 8396SOL    HW226383   5.262   3.421   0.320 -0.1475 -0.4595  1.1009
 8397SOL     OW26384   0.942   2.250   0.136  0.2697  0.0366 -0.0190
 8397SOL    HW126385   0.898   2.315   0.081  0.7573  0.5555  0.2035
 8397SOL    HW226386   1.020   2.225   0.086  0.5942  0.3411  0.3370
 8398SOL     OW26387   5.788   4.356   3.836  0.4295  0.2153  0.2557
 8398SOL    HW126388   5.863   4.416   3.843 -1.1494  2.2473  0.6908
 8398SOL    HW226389   5.753   4.352   3.925  0.4592 -1.3499  0.2119
 8399SOL     OW26390   1.601   6.487   2.602  0.3826  0.0236 -0.1572
 8399SOL    HW126391   1.589   6.393   2.588  0.4559 -0.0701  0.3928
 8399SOL    HW226392   1.674   6.493   2.664 -0.2356  0.4082  0.5440
 8400SOL     OW26393   2.693   5.765   3.246  0.0892  0.0142 -0.3821
 8400SOL    HW126394   2.619   5.818   3.215 -1.0145 -0.7312  0.8488
 8400SOL    HW226395   2.692   5.687   3.190  0.1579  0.1667 -0.5950
 8401SOL     OW26396   2.179   0.082   0.305  1.1006 -0.1000  0.6100
 8401SOL    HW126397   2.212   0.120   0.387 -0.3086  1.4304  0.5042
 8401SOL    HW226398   2.092   0.120   0.294  1.4839  0.1847 -1.9226
 8402SOL     OW26399   7.041   0.894   5.654 -0.3961 -0.3892 -0.1095
 8402SOL    HW126400   7.110   0.889   5.586  0.4225 -0.6937  0.7206
 8402SOL    HW226401   6.967   0.846   5.616  0.2808 -1.1244 -0.5445
 8403SOL     OW26402   7.247   1.215   8.052 -0.7888 -0.4113 -0.8298
 8403SOL    HW126403   7.303   1.139   8.037 -0.4862 -0.5347  0.7913
 8403SOL    HW226404   7.291   1.286   8.005  1.3844 -0.2502  1.2550
 8404SOL     OW26405   5.531   0.040   4.447  0.0054  0.4589 -0.0531
 8404SOL    HW126406   5.599  -0.024   4.426  1.1258  1.4054  0.6183
 8404SOL    HW226407   5.551   0.069   4.536 -0.0631  2.2428 -0.5816
 8405SOL     OW26408   8.317   8.100   3.297  0.8022 -0.3839  0.0182
 8405SOL    HW126409   8.228   8.064   3.291  1.1269 -1.2325  0.0537
 8405SOL    HW226410   8.351   8.066   3.379  0.7157  1.0250  0.6643
 8406SOL     OW26411   7.554   2.364   7.491  0.1981 -0.0947  0.0264
 8406SOL    HW126412   7.564   2.338   7.400  0.4510  0.3387 -0.0684
 8406SOL    HW226413   7.593   2.292   7.541 -1.5653 -1.2306 -0.1223
 8407SOL     OW26414   2.888   3.287   1.003 -0.2984  0.3778  0.7209
 8407SOL    HW126415   2.882   3.192   1.009 -0.5737  0.3507  0.0817
 8407SOL    HW226416   2.798   3.317   0.996 -0.1786  0.6217  0.1146
 8408SOL     OW26417   1.714   7.388   7.071 -0.4595 -0.1012  0.2548
 8408SOL    HW126418   1.776   7.316   7.080  0.5069  0.9569  3.0838
 8408SOL    HW226419   1.628   7.347   7.073  0.0848 -1.2542  0.5711
 8409SOL     OW26420   1.710   7.611   7.983 -0.6884 -0.4582 -0.0478
 8409SOL    HW126421   1.694   7.605   7.889 -1.9739  0.0501  0.1145
 8409SOL    HW226422   1.745   7.699   7.996 -0.7293 -0.4457 -0.0233
 8410SOL     OW26423   0.437   1.833   8.168 -0.1993  0.1505  0.7053
 8410SOL    HW126424   0.403   1.862   8.252 -1.2594 -0.7371  0.6148
 8410SOL    HW226425   0.517   1.883   8.155 -0.4114  0.8265  1.8967
 8411SOL     OW26426   8.388   2.445   8.082  0.0864  0.1455  0.0569
 8411SOL    HW126427   8.332   2.426   8.007  0.7874 -1.9444 -0.0196
 8411SOL    HW226428   8.474   2.463   8.044  0.2664 -0.1502  0.3153
 8412SOL     OW26429   3.330   3.665   3.572  0.0679  0.7506  0.0044
 8412SOL    HW126430   3.267   3.596   3.588 -1.7591  1.7553 -2.2330
 8412SOL    HW226431   3.415   3.627   3.595 -1.0503 -1.5740  0.5180
 8413SOL     OW26432   0.770   3.868   8.162 -0.3509 -0.0461 -0.0920
 8413SOL    HW126433   0.714   3.800   8.200 -1.2534  0.9508  0.4386
 8413SOL    HW226434   0.719   3.904   8.090 -0.3383  0.7686  0.2915
 8414SOL     OW26435   8.473   5.231   6.498 -0.0398 -0.2074  0.4220
 8414SOL    HW126436   8.554   5.229   6.550  0.0493 -0.4915  0.2725
 8414SOL    HW226437   8.453   5.324   6.490  0.4382 -0.1167  0.2088
 8415SOL     OW26438   2.533   8.105   7.112  0.3647 -0.1926 -0.3778
 8415SOL    HW126439   2.441   8.131   7.101  0.5398 -0.0939 -1.8728
 8415SOL    HW226440   2.576   8.184   7.143 -0.2421 -0.5649  1.5205
 8416SOL     OW26441   4.414   0.432   6.588  0.5252 -0.5796 -0.0574
 8416SOL    HW126442   4.427   0.484   6.667  2.0151 -0.6220 -0.2297
 8416SOL    HW226443   4.425   0.494   6.516  0.5267 -0.7918 -0.2399
 8417SOL     OW26444   6.326   6.901   5.149 -0.0726  0.0606  0.0319
 8417SOL    HW126445   6.249   6.868   5.103 -1.3746 -0.0510  2.1504
 8417SOL    HW226446   6.334   6.992   5.120  0.6248 -0.6193 -2.1490
 8418SOL     OW26447   5.718   3.798   5.733 -0.0970 -0.0810 -0.0613
 8418SOL    HW126448   5.634   3.766   5.699 -0.1099 -0.7852  0.5931
 8418SOL    HW226449   5.758   3.721   5.775 -0.3086  0.8230  1.9325
 8419SOL     OW26450   3.452   8.127   0.593 -0.3668  0.2076 -0.8429
 8419SOL    HW126451   3.474   8.051   0.540 -0.1556  0.0494 -0.5343
 8419SOL    HW226452   3.406   8.186   0.533  0.5235  0.3547 -1.3952
 8420SOL     OW26453   7.397   8.079   3.644  0.1254 -0.0298  0.0559
 8420SOL    HW126454   7.419   8.022   3.570 -0.1920  0.8772 -0.7665
 8420SOL    HW226455   7.311   8.115   3.622  0.2593  0.6608  0.6142
 8421SOL     OW26456   1.404   3.897   6.198 -0.2786  0.3756  0.4444
 8421SOL    HW126457   1.364   3.971   6.244  0.7005 -0.2304  2.4020
 8421SOL    HW226458   1.486   3.931   6.163 -0.4975  0.5703  0.1242
 8422SOL     OW26459   1.957   4.094   6.595 -0.6624  0.6278 -0.2793
 8422SOL    HW126460   1.893   4.060   6.657 -1.1163  1.6675 -0.1639
 8422SOL    HW226461   2.014   4.150   6.647 -0.8453  1.2450 -0.7242
 8423SOL     OW26462   4.592   1.037   1.377 -0.2120 -0.3379 -0.2274
 8423SOL    HW126463   4.619   1.026   1.468  0.5680  4.3680  0.3706
 8423SOL    HW226464   4.673   1.051   1.328 -0.8015  0.8151 -0.9268
 8424SOL     OW26465   4.721   0.334   1.426  0.2446 -0.0867 -0.1980
 8424SOL    HW126466   4.709   0.239   1.431  0.4772 -0.1017  0.1256
 8424SOL    HW226467   4.673   0.360   1.348  0.9108 -0.5910 -0.7891
 8425SOL     OW26468   8.253   1.569   6.929 -0.1927 -0.5201  0.0354
 8425SOL    HW126469   8.318   1.519   6.979  0.3092  1.2846  1.2967
 8425SOL    HW226470   8.182   1.584   6.991 -1.7179 -2.1096 -1.2092
 8426SOL     OW26471   7.028   0.231   6.431  0.2498  0.0486 -0.4039
 8426SOL    HW126472   7.044   0.230   6.337 -2.0973 -3.4537 -0.9665
 8426SOL    HW226473   6.950   0.176   6.443  2.3887 -2.6104  3.8174
 8427SOL     OW26474   3.446   7.168   1.469  0.3030 -0.2435 -0.1197
 8427SOL    HW126475   3.500   7.106   1.419 -0.3798 -0.8071 -0.1698
 8427SOL    HW226476   3.477   7.159   1.559  1.1321  0.3433 -0.3314
 8428SOL     OW26477   8.414   4.159   1.616  0.6105  0.1418 -0.0085
 8428SOL    HW126478   8.465   4.177   1.537 -1.3419 -0.2113 -1.4253
 8428SOL    HW226479   8.475   4.113   1.674  2.4127  1.3930 -0.8344
 8429SOL     OW26480   2.161   1.500   3.525  0.3920  0.0419  0.3285
 8429SOL    HW126481   2.068   1.515   3.506  0.2181  0.2075  1.2585
 8429SOL    HW226482   2.195   1.460   3.445 -0.8355 -1.4685  0.5032
 8430SOL     OW26483   2.744   5.677   7.672  0.9405  0.6151  0.0200
 8430SOL    HW126484   2.668   5.705   7.621 -0.5482 -1.4335  0.9510
 8430SOL    HW226485   2.787   5.758   7.697 -0.8789  1.8685 -0.6413
 8431SOL     OW26486   3.354   4.654   6.054 -0.3630 -0.5844 -0.2837
 8431SOL    HW126487   3.398   4.679   5.973 -0.3689  0.1821 -0.0626
 8431SOL    HW226488   3.379   4.563   6.069  2.7327  0.3401  0.8231
 8432SOL     OW26489   2.967   6.739   6.342 -0.7910 -0.0600 -0.3498
 8432SOL    HW126490   2.902   6.796   6.383 -0.3429  1.4935 -1.6765
 8432SOL    HW226491   2.917   6.686   6.280 -0.8398  1.2849 -1.5273
 8433SOL     OW26492   0.178   0.478   7.990  0.7619 -0.3636  0.7258
 8433SOL    HW126493   0.191   0.440   8.077  1.8391 -0.1193  0.6857
 8433SOL    HW226494   0.214   0.567   7.996  0.1018 -0.0450  0.2504
 8434SOL     OW26495   7.428   3.937   4.228  0.0451 -0.3827  0.0413
 8434SOL    HW126496   7.489   4.010   4.235  0.7549 -0.7975 -1.4094
 8434SOL    HW226497   7.347   3.976   4.196 -0.1552  0.0148  0.9910
 8435SOL     OW26498   2.104   5.956   2.982 -0.1422  0.6854  0.2765
 8435SOL    HW126499   2.057   5.874   2.998  1.4562 -0.7663 -1.8735
 8435SOL    HW226500   2.059   6.021   3.036 -2.3365 -1.3121  0.9969
 8436SOL     OW26501   1.428   7.047   4.967 -0.5479 -0.2135 -0.2025
 8436SOL    HW126502   1.390   6.976   4.916 -1.0903 -0.2912  0.2979
 8436SOL    HW226503   1.465   7.107   4.902  0.3177 -1.1585 -0.6192
 8437SOL     OW26504   4.583   1.283   5.955 -0.3135  0.5953  0.5626
 8437SOL    HW126505   4.489   1.298   5.968 -0.5974 -0.8185  0.3712
 8437SOL    HW226506   4.599   1.305   5.864 -0.5969  0.2910  0.4357
 8438SOL     OW26507   1.027   2.273   6.773 -0.1206 -0.7744  0.3863
 8438SOL    HW126508   1.014   2.275   6.867 -1.7999 -0.4859  0.1689
 8438SOL    HW226509   0.955   2.324   6.737  1.5519  0.7611 -0.9787
 8439SOL     OW26510   4.633   4.603   4.979 -0.5298  0.1759  0.0301
 8439SOL    HW126511   4.637   4.644   5.065  2.2889 -0.9774  0.5573
 8439SOL    HW226512   4.690   4.657   4.924  2.7896 -2.4500  0.5947
 8440SOL     OW26513   8.327   5.272   0.880  0.1758 -0.8760  0.0725
 8440SOL    HW126514   8.399   5.333   0.861  1.1595 -1.5129  1.5221
 8440SOL    HW226515   8.366   5.185   0.868 -0.4707 -1.2289  0.4683
 8441SOL     OW26516   1.869   3.014   1.737 -0.2144  0.2197 -0.0464
 8441SOL    HW126517   1.808   3.064   1.682  0.1651  0.7718  0.0266
 8441SOL    HW226518   1.860   3.054   1.824  0.7208  0.7361 -0.1783
 8442SOL     OW26519   5.459   6.498   7.639 -0.9709 -0.1074  0.0221
 8442SOL    HW126520   5.475   6.408   7.610  0.2526 -0.7113  2.2992
 8442SOL    HW226521   5.503   6.553   7.573 -1.1665 -1.1925 -1.0430
 8443SOL     OW26522   8.590   8.060   0.597  0.1447  0.0023 -0.1714
 8443SOL    HW126523   8.537   7.992   0.639 -1.0119  1.3405  0.6710
 8443SOL    HW226524   8.571   8.139   0.648  0.6344  1.1725 -1.7312
 8444SOL     OW26525   0.435   3.005   3.131  0.0156 -0.1714 -0.3967
 8444SOL    HW126526   0.420   3.091   3.171 -0.5661  0.2055 -1.4026
 8444SOL    HW226527   0.377   3.003   3.055  1.6082 -0.5709 -1.6655
 8445SOL     OW26528   1.785   0.822   6.297  0.3293 -0.1912  0.0926
 8445SOL    HW126529   1.696   0.855   6.311  1.0229  0.7132  2.9240
 8445SOL    HW226530   1.802   0.765   6.371  2.5567  0.6954  0.3510
 8446SOL     OW26531   3.596   5.108   8.044  0.1967 -0.3847 -0.0506
 8446SOL    HW126532   3.666   5.160   8.003 -0.0658 -1.8624 -2.6202
 8446SOL    HW226533   3.520   5.166   8.044  0.5499  0.0897 -0.4549
 8447SOL     OW26534   8.028   1.953   0.214  0.4516  0.2739 -0.2715
 8447SOL    HW126535   8.018   1.916   0.302  0.9807  0.1482 -0.2574
 8447SOL    HW226536   8.011   2.047   0.225 -0.8739  0.0485 -0.3022
 8448SOL     OW26537   7.821   6.069   1.689 -0.4776  0.0444  0.0429
 8448SOL    HW126538   7.906   6.038   1.719 -0.1934  0.2984 -0.4887
 8448SOL    HW226539   7.834   6.089   1.596 -0.2742  2.9993  0.6083
 8449SOL     OW26540   5.960   1.384   8.212  0.1558 -0.5046  0.3845
 8449SOL    HW126541   5.926   1.309   8.259 -0.1190 -0.5404  0.1273
 8449SOL    HW226542   5.883   1.432   8.182  0.2629  1.1290  2.4835
 8450SOL     OW26543   8.376   0.556   0.236 -0.6098 -0.3338  0.2622
 8450SOL    HW126544   8.348   0.600   0.156  1.2313 -1.2036 -0.9213
 8450SOL    HW226545   8.295   0.521   0.274 -1.8920  2.3906  0.2849
 8451SOL     OW26546   4.581   0.697   1.955 -0.6719 -0.8968  0.3348
 8451SOL    HW126547   4.517   0.625   1.951  1.5251 -2.8890 -2.1595
 8451SOL    HW226548   4.570   0.744   1.873  0.0802 -0.3572  0.5344
 8452SOL     OW26549   7.052   6.585   5.835  0.4897 -0.3845 -0.0228
 8452SOL    HW126550   6.999   6.505   5.841 -0.2207  0.0050 -0.7795
 8452SOL    HW226551   7.002   6.650   5.886  1.1363 -0.4432  0.7115
 8453SOL     OW26552   4.279   7.756   7.254  0.3300 -0.2634  0.3897
 8453SOL    HW126553   4.230   7.829   7.290  1.5743  0.2602  1.1095
 8453SOL    HW226554   4.369   7.769   7.285  1.0725 -0.8521 -1.3255
 8454SOL     OW26555   3.603   6.134   3.947 -0.0610  0.3139  0.8718
 8454SOL    HW126556   3.539   6.149   3.878  0.5915  0.1784  0.2279
 8454SOL    HW226557   3.598   6.040   3.965 -1.4243  0.5945  2.2182
 8455SOL     OW26558   4.091   0.096   0.101  0.3357 -0.0190  0.5801
 8455SOL    HW126559   4.070   0.089   0.194  0.7346 -0.7673  0.6247
 8455SOL    HW226560   4.181   0.063   0.094 -0.4478 -2.1667 -0.3789
 8456SOL     OW26561   2.459   6.761   1.679  0.0588  0.4901 -0.3394
 8456SOL    HW126562   2.365   6.767   1.664 -0.0449 -0.3874 -0.1036
 8456SOL    HW226563   2.488   6.852   1.688 -0.9073  0.7369  0.4755
 8457SOL     OW26564   4.262   7.118   1.444 -0.1181 -0.5645 -0.3046
 8457SOL    HW126565   4.329   7.171   1.487 -0.2988 -1.5333  1.2301
 8457SOL    HW226566   4.182   7.135   1.494 -0.8205 -0.2093 -1.4851
 8458SOL     OW26567   2.756   5.988   6.685  0.0935  0.2479 -0.0734
 8458SOL    HW126568   2.702   5.951   6.615 -0.4669  0.4503  0.2448
 8458SOL    HW226569   2.737   6.082   6.682  2.5218  0.7956 -1.7738
 8459SOL     OW26570   3.532   1.187   0.709 -0.0661  0.2430  0.1629
 8459SOL    HW126571   3.592   1.260   0.692 -1.3859  1.0298 -1.3614
 8459SOL    HW226572   3.589   1.113   0.731  1.4700  0.9696 -1.1985
 8460SOL     OW26573   6.211   3.739   5.977  0.0181  0.1164  0.5695
 8460SOL    HW126574   6.242   3.775   6.061 -1.2204 -0.5192  1.3260
 8460SOL    HW226575   6.155   3.807   5.941  1.4602  0.8731 -0.3421
 8461SOL     OW26576   4.494   6.172   5.569  0.1067  0.2617 -0.6151
 8461SOL    HW126577   4.414   6.224   5.567  0.9596  1.8640  1.7915
 8461SOL    HW226578   4.483   6.107   5.500 -1.3082  3.2059 -3.3907
 8462SOL     OW26579   4.830   6.392   5.756 -0.9000  0.3471  0.5532
 8462SOL    HW126580   4.807   6.367   5.845 -0.2081  0.0904  0.6659
 8462SOL    HW226581   4.753   6.439   5.723 -1.4358 -0.1821  1.0353
 8463SOL     OW26582   0.837   3.374   3.283  0.4893  0.0147  0.5594
 8463SOL    HW126583   0.747   3.403   3.296  0.1509 -0.9177  0.3287
 8463SOL    HW226584   0.850   3.377   3.188 -0.1040 -2.1594  0.3712
 8464SOL     OW26585   5.869   7.395   0.781  0.3473 -0.1041 -0.4056
 8464SOL    HW126586   5.899   7.481   0.751 -0.4765  0.4962  0.4199
 8464SOL    HW226587   5.842   7.409   0.871  0.5001 -1.3194 -0.1508
 8465SOL     OW26588   4.705   5.568   4.030 -0.6426  0.0281 -0.2590
 8465SOL    HW126589   4.747   5.624   4.095 -0.5694  0.5189 -0.7243
 8465SOL    HW226590   4.684   5.487   4.078  2.8512 -1.1865 -0.5216
 8466SOL     OW26591   8.598   3.339   7.301 -0.2677 -0.1760  0.4502
 8466SOL    HW126592   8.625   3.292   7.380  0.6582 -1.7975 -0.7758
 8466SOL    HW226593   8.675   3.388   7.274 -0.0480 -0.9053 -0.3086
 8467SOL     OW26594   0.425   1.364   4.222  0.2614  0.6241  0.1523
 8467SOL    HW126595   0.330   1.375   4.222  0.0221 -1.1665 -0.1274
 8467SOL    HW226596   0.444   1.320   4.140  1.3402  0.9404  0.2204
 8468SOL     OW26597   6.484   3.659   1.764 -0.0465 -0.1189  0.9878
 8468SOL    HW126598   6.407   3.664   1.707  0.5085 -0.9158  0.1250
 8468SOL    HW226599   6.557   3.688   1.709  0.7535 -2.3929  0.7176
 8469SOL     OW26600   1.436   2.208   1.795  0.1275 -0.0100  0.0886
 8469SOL    HW126601   1.361   2.162   1.834  0.3247  0.7152  1.4000
 8469SOL    HW226602   1.505   2.141   1.789  0.3461  0.0123  1.7756
 8470SOL     OW26603   8.530   8.587   3.799 -0.2402 -0.1935  0.0429
 8470SOL    HW126604   8.503   8.561   3.887 -3.3560  2.6041  0.1255
 8470SOL    HW226605   8.583   8.665   3.813  1.4802 -1.2164 -0.5292
 8471SOL     OW26606   4.183   4.857   7.100  0.0313  0.0210  0.1379
 8471SOL    HW126607   4.186   4.889   7.010 -0.9218  0.8536  0.3913
 8471SOL    HW226608   4.196   4.935   7.154 -0.8769 -0.2384  0.7460
 8472SOL     OW26609   5.155   5.054   1.651 -0.1849  0.0375 -0.1668
 8472SOL    HW126610   5.150   5.049   1.746 -0.5250  0.9488 -0.1234
 8472SOL    HW226611   5.111   5.136   1.629 -1.8242 -1.0824 -1.2708
 8473SOL     OW26612   3.578   4.149   4.706  0.3721  0.3883  0.0218
 8473SOL    HW126613   3.550   4.212   4.640  0.3634  0.9989  0.5997
 8473SOL    HW226614   3.581   4.199   4.787  3.5963  0.4858 -0.0419
 8474SOL     OW26615   2.509   2.487   3.844  0.4405 -0.1435  0.1492
 8474SOL    HW126616   2.435   2.539   3.812  0.4926 -0.8677 -1.1990
 8474SOL    HW226617   2.516   2.414   3.783  1.6774 -0.6130  0.8131
 8475SOL     OW26618   8.026   0.096   4.251 -0.1380 -0.2308 -0.4637
 8475SOL    HW126619   8.089   0.168   4.253  0.0107 -0.3579  1.5022
 8475SOL    HW226620   8.079   0.017   4.262 -0.3288 -0.6435 -2.3060
 8476SOL     OW26621   0.550   2.036   2.606  0.4472 -0.3422 -0.1009
 8476SOL    HW126622   0.526   2.016   2.697  0.7810  1.1529  0.3571
 8476SOL    HW226623   0.483   1.993   2.553  0.5431 -1.6788  0.8164
 8477SOL     OW26624   4.532   7.538   0.095  0.0727  0.2208 -0.3786
 8477SOL    HW126625   4.564   7.567   0.181  0.7271  0.1896 -0.6050
 8477SOL    HW226626   4.452   7.589   0.082  0.7863  1.3745 -0.4224
 8478SOL     OW26627   5.487   4.021   1.354 -0.3070  0.0501 -0.1040
 8478SOL    HW126628   5.547   4.035   1.281 -0.4934  0.8591 -0.1065
 8478SOL    HW226629   5.411   3.979   1.315 -0.3662  0.3915 -0.3620
 8479SOL     OW26630   5.115   7.060   6.600 -0.1889  0.3321  0.6237
 8479SOL    HW126631   5.043   7.120   6.617  1.4564  1.8353  2.8965
 8479SOL    HW226632   5.118   7.004   6.677  1.2811  0.5925  0.7900
 8480SOL     OW26633   0.814   8.020   1.835 -0.3419  0.2510  0.2826
 8480SOL    HW126634   0.769   8.045   1.915  1.7315 -3.8211  3.0843
 8480SOL    HW226635   0.896   8.069   1.836 -0.4908  0.4958  0.4421
 8481SOL     OW26636   3.262   6.331   0.178 -0.0238  0.1022 -0.3371
 8481SOL    HW126637   3.224   6.413   0.148 -0.1342  0.6275  1.1758
 8481SOL    HW226638   3.353   6.335   0.149  0.1434  1.0638  0.2781
 8482SOL     OW26639   4.228   5.408   0.362 -0.3372  0.2938  0.2039
 8482SOL    HW126640   4.307   5.361   0.336 -0.5311  0.4978 -0.8191
 8482SOL    HW226641   4.206   5.461   0.285 -1.7387 -0.1308  0.2940
 8483SOL     OW26642   5.582   1.479   4.815 -0.4048 -0.5486 -0.0939
 8483SOL    HW126643   5.616   1.437   4.895 -0.4398  1.4391  1.0248
 8483SOL    HW226644   5.660   1.496   4.763 -0.2950 -1.0868 -0.1157
 8484SOL     OW26645   5.715   1.249   4.628  0.3725  0.3260 -0.2523
 8484SOL    HW126646   5.652   1.195   4.675 -0.0141 -1.2410 -2.4261
 8484SOL    HW226647   5.661   1.313   4.580  0.6519  0.9029  0.1921
 8485SOL     OW26648   4.145   7.844   0.283  0.1380  0.0529  0.1207
 8485SOL    HW126649   4.119   7.935   0.294  0.5034  0.2804 -0.8159
 8485SOL    HW226650   4.065   7.799   0.257 -0.3061 -0.1372  1.6665
 8486SOL     OW26651   7.998   8.283   7.026 -0.3327 -0.2156  0.0637
 8486SOL    HW126652   7.932   8.338   6.984  0.9521  0.4178 -1.2114
 8486SOL    HW226653   8.011   8.322   7.112  1.3348  2.2369 -1.1835
 8487SOL     OW26654   0.238   6.280   2.383 -0.0094 -0.0769 -0.4914
 8487SOL    HW126655   0.275   6.278   2.472  0.7517  1.6884 -0.7343
 8487SOL    HW226656   0.143   6.270   2.397 -0.2304  2.7234  0.8030
 8488SOL     OW26657   8.206   4.222   3.682 -0.1321 -0.1401  0.2783
 8488SOL    HW126658   8.270   4.168   3.635 -0.6169  0.1936 -0.8211
 8488SOL    HW226659   8.123   4.176   3.671 -0.3486  0.2373  0.3241
 8489SOL     OW26660   5.530   7.818   6.460 -0.0786  0.2698  0.5770
 8489SOL    HW126661   5.488   7.732   6.458  2.1799 -0.9165 -1.9646
 8489SOL    HW226662   5.493   7.865   6.385  0.3760  0.6187  0.5644
 8490SOL     OW26663   3.005   4.866   1.092  0.4496 -0.2644 -0.5357
 8490SOL    HW126664   2.986   4.775   1.070  0.8964 -0.6098  0.4372
 8490SOL    HW226665   2.952   4.884   1.170  1.2603 -0.0799 -0.0099
 8491SOL     OW26666   2.197   7.066   1.095 -0.1458 -0.1281  0.0086
 8491SOL    HW126667   2.181   7.160   1.105  0.0193 -0.0886 -0.0857
 8491SOL    HW226668   2.292   7.060   1.078 -0.3663 -0.1969 -1.3633
 8492SOL     OW26669   2.960   7.732   6.706 -0.2647 -0.0366 -0.0607
 8492SOL    HW126670   3.008   7.692   6.633 -1.0089  0.7954 -1.0220
 8492SOL    HW226671   2.954   7.824   6.683 -0.7816  0.1838  0.9217
 8493SOL     OW26672   1.713   1.799   3.674 -0.1640 -0.3487 -0.1785
 8493SOL    HW126673   1.741   1.752   3.752 -0.4684  0.5443  0.4796
 8493SOL    HW226674   1.657   1.736   3.627  1.3165 -1.4660 -0.5300
 8494SOL     OW26675   1.790   5.348   0.173 -0.1838 -0.2486  0.0224
 8494SOL    HW126676   1.805   5.432   0.215 -0.5798  0.1956 -0.6916
 8494SOL    HW226677   1.746   5.295   0.239  0.1972  0.0581  0.5210
 8495SOL     OW26678   0.741   2.541   0.066  0.2390  0.0530 -0.5766
 8495SOL    HW126679   0.781   2.598   0.132 -0.3875 -0.2530  0.0819
 8495SOL    HW226680   0.760   2.584  -0.017 -0.5467  1.4227 -0.0793
 8496SOL     OW26681   4.993   6.953   3.425 -0.5894 -0.0433  0.1438
 8496SOL    HW126682   5.078   6.912   3.439 -1.8606 -2.6481  0.8853
 8496SOL    HW226683   4.986   6.962   3.330 -0.5492 -2.4691 -0.1618
 8497SOL     OW26684   2.084   1.125   2.158 -0.6670 -0.0925  0.3884
 8497SOL    HW126685   2.121   1.097   2.242  2.0675 -0.7924 -0.9352
 8497SOL    HW226686   2.028   1.052   2.131  0.4343 -1.0075  0.4870
 8498SOL     OW26687   3.075   2.880   1.612  0.1510  0.4542  0.1066
 8498SOL    HW126688   3.021   2.803   1.628  0.5563 -0.0646 -0.9488
 8498SOL    HW226689   3.012   2.952   1.603 -0.2835  0.0844  0.1597
 8499SOL     OW26690   4.840   3.186   8.231 -0.3158 -1.0292 -0.5555
 8499SOL    HW126691   4.828   3.178   8.325 -0.8839  1.4265 -0.3613
 8499SOL    HW226692   4.755   3.214   8.198  1.0275  3.1844 -1.0162
 8500SOL     OW26693   5.162   6.817   5.695 -0.3306 -0.7243  0.4089
 8500SOL    HW126694   5.241   6.800   5.644 -1.3494 -1.7348 -0.9312
 8500SOL    HW226695   5.170   6.909   5.720  0.3334 -0.2079 -1.4737
 8501SOL     OW26696   2.722   1.357   6.266  0.0844  0.3073  0.0689
 8501SOL    HW126697   2.749   1.342   6.357 -0.5344 -0.3006  0.1649
 8501SOL    HW226698   2.702   1.451   6.263 -1.7089  0.0205  1.1025
 8502SOL     OW26699   0.946   0.250   4.426  0.3920 -0.2664  0.8901
 8502SOL    HW126700   1.016   0.271   4.365  0.4801 -1.9760  0.3548
 8502SOL    HW226701   0.871   0.299   4.394  1.2774  1.5095  1.4186
 8503SOL     OW26702   3.877   1.803   2.650  0.3090  0.3147 -0.1284
 8503SOL    HW126703   3.942   1.864   2.682  0.8104 -0.4575  0.3784
 8503SOL    HW226704   3.826   1.780   2.728 -1.5027  1.9744 -0.7546
 8504SOL     OW26705   0.030   5.438   1.986 -0.2017 -0.0679  0.2133
 8504SOL    HW126706   0.116   5.464   1.954  0.1991 -0.8373  0.6098
 8504SOL    HW226707   0.030   5.463   2.078 -0.4283  0.0003  0.1952
 8505SOL     OW26708   2.252   3.281   4.060  0.1805 -0.3041 -0.3307
 8505SOL    HW126709   2.310   3.235   4.121 -1.6499 -0.8705  1.0863
 8505SOL    HW226710   2.201   3.211   4.018 -1.5310  0.2843  0.6764
 8506SOL     OW26711   4.357   3.525   4.421  0.0211 -1.0230  0.2539
 8506SOL    HW126712   4.311   3.458   4.472 -0.8859 -0.7600 -0.2052
 8506SOL    HW226713   4.380   3.593   4.486 -1.8953 -0.2779  0.2036
 8507SOL     OW26714   2.932   8.599   2.400 -0.5588  0.4841  0.8967
 8507SOL    HW126715   2.937   8.511   2.362 -1.6799  0.8585 -0.1813
 8507SOL    HW226716   2.996   8.650   2.350  0.6436  0.1470  2.0224
 8508SOL     OW26717   1.459   1.666   6.213 -0.3833 -0.4217 -0.3216
 8508SOL    HW126718   1.490   1.753   6.238  0.3891 -0.9175  0.5104
 8508SOL    HW226719   1.402   1.681   6.138 -0.0438  0.7730 -0.3544
 8509SOL     OW26720   5.941   4.715   5.601 -0.1744 -0.1083  0.2084
 8509SOL    HW126721   5.960   4.665   5.680  0.2206 -4.1481 -2.1621
 8509SOL    HW226722   6.026   4.730   5.561 -0.5353 -1.9987 -1.4512
 8510SOL     OW26723   3.189   1.881   1.643 -0.3281  0.2707  0.2241
 8510SOL    HW126724   3.095   1.868   1.656 -0.2992 -1.0255 -0.7190
 8510SOL    HW226725   3.199   1.897   1.549  0.4684 -0.4723  0.1669
 8511SOL     OW26726   0.207   5.454   2.467  0.0525  0.3101  0.1170
 8511SOL    HW126727   0.249   5.501   2.539 -1.3619  0.0644  1.1437
 8511SOL    HW226728   0.229   5.362   2.482 -2.4231 -0.1110  1.8996
 8512SOL     OW26729   8.201   7.963   0.199 -0.1793  0.0487 -0.1520
 8512SOL    HW126730   8.261   8.026   0.159 -1.4097  0.7382 -0.9776
 8512SOL    HW226731   8.166   7.913   0.125  0.5869 -1.4685  0.4663
 8513SOL     OW26732   8.188   5.542   4.869  0.2704 -0.4409  0.1885
 8513SOL    HW126733   8.201   5.540   4.964  0.4001  2.0651  0.2960
 8513SOL    HW226734   8.271   5.577   4.835 -0.0286 -0.6464 -0.7714
 8514SOL     OW26735   1.578   5.638   6.766 -0.2441  0.0313  0.4019
 8514SOL    HW126736   1.495   5.641   6.813 -1.1667 -0.0926 -1.1615
 8514SOL    HW226737   1.558   5.592   6.684  1.5629 -0.7686  0.3677
 8515SOL     OW26738   2.803   1.178   4.643  0.6328 -0.0920 -0.2289
 8515SOL    HW126739   2.766   1.266   4.647 -1.4746 -0.9592  3.5757
 8515SOL    HW226740   2.883   1.184   4.696 -0.0764 -0.6864  0.9144
 8516SOL     OW26741   7.597   5.963   7.849 -0.1430  0.0325  0.1169
 8516SOL    HW126742   7.623   6.025   7.781 -0.9050  0.5518  0.2822
 8516SOL    HW226743   7.643   5.882   7.826 -0.9643 -0.0372 -1.4592
 8517SOL     OW26744   8.519   2.705   0.035 -0.5276 -0.0608 -0.4349
 8517SOL    HW126745   8.527   2.768   0.106  0.1203  1.2393 -1.6051
 8517SOL    HW226746   8.578   2.633   0.059 -1.6594 -0.5141  1.1584
 8518SOL     OW26747   5.803   7.672   1.545  0.3437 -0.4016  0.3423
 8518SOL    HW126748   5.782   7.708   1.631  1.5649  0.0503  0.4582
 8518SOL    HW226749   5.736   7.709   1.487 -0.4805 -0.6937  1.0718
 8519SOL     OW26750   0.709   0.997   6.463  0.5313  0.0680 -0.0540
 8519SOL    HW126751   0.771   0.927   6.441  0.9943  0.5126 -0.1817
 8519SOL    HW226752   0.764   1.067   6.497  0.0860  0.4407 -0.1010
 8520SOL     OW26753   7.555   1.657   5.760 -0.4478  0.1152  0.2604
 8520SOL    HW126754   7.638   1.671   5.715  0.5175 -1.3764  1.4937
 8520SOL    HW226755   7.502   1.608   5.697 -0.6585  1.5996 -0.7637
 8521SOL     OW26756   7.385   4.763   5.396  0.0686 -0.2166  0.3629
 8521SOL    HW126757   7.297   4.800   5.392  0.5913  1.0096 -0.1313
 8521SOL    HW226758   7.433   4.818   5.458  0.9544  0.1795 -0.6398
 8522SOL     OW26759   0.890   6.857   0.450 -0.7281  0.1888  0.6794
 8522SOL    HW126760   0.879   6.800   0.526 -1.8127 -0.7644 -0.1536
 8522SOL    HW226761   0.886   6.946   0.486  1.1325 -0.2139  2.0248
 8523SOL     OW26762   3.306   7.928   0.717 -0.0991  0.4296 -0.6447
 8523SOL    HW126763   3.369   7.878   0.769 -0.7296 -1.1590 -1.3307
 8523SOL    HW226764   3.360   7.982   0.660  0.6125  0.6994  0.2553
 8524SOL     OW26765   7.886   6.750   4.615 -0.0783 -0.8917  0.2252
 8524SOL    HW126766   7.938   6.825   4.586  0.4248 -1.1477  0.4396
 8524SOL    HW226767   7.800   6.786   4.635 -0.1269 -0.5477 -0.6085
 8525SOL     OW26768   6.316   2.493   3.557 -0.0194 -0.2815 -0.0907
 8525SOL    HW126769   6.406   2.516   3.580  0.2071  1.1076 -2.1018
 8525SOL    HW226770   6.283   2.570   3.511 -2.4260 -0.5657  1.0012
 8526SOL     OW26771   1.820   7.931   1.295 -0.0353  0.8644  0.3404
 8526SOL    HW126772   1.885   7.982   1.248 -2.4303  2.5503 -1.4138
 8526SOL    HW226773   1.767   7.890   1.226 -0.7768 -0.5078  1.6716
 8527SOL     OW26774   0.734   1.310   1.290  0.4279 -0.0959 -0.9928
 8527SOL    HW126775   0.653   1.349   1.324  0.3403 -0.6472 -0.5479
 8527SOL    HW226776   0.802   1.374   1.312  0.4692 -0.6806  0.7956
 8528SOL     OW26777   6.788   3.266   1.266 -0.0194  0.1121 -0.4083
 8528SOL    HW126778   6.843   3.208   1.319 -0.0534  0.1977 -0.2781
 8528SOL    HW226779   6.701   3.228   1.272 -0.3114  0.9227  0.7875
 8529SOL     OW26780   0.783   8.489   3.745  0.1778 -0.2911  0.6039
 8529SOL    HW126781   0.825   8.545   3.810  0.1892  0.1781  0.1924
 8529SOL    HW226782   0.690   8.491   3.769  0.1216  0.2168  0.3654
 8530SOL     OW26783   6.506   4.220   8.421 -0.2540 -0.0900  0.3639
 8530SOL    HW126784   6.476   4.129   8.414 -1.6225  0.2905  1.0701
 8530SOL    HW226785   6.555   4.235   8.340 -1.3063 -0.9843 -0.4727
 8531SOL     OW26786   4.474   2.196   6.171 -0.5995 -0.1253  0.5587
 8531SOL    HW126787   4.382   2.200   6.196 -0.4306 -0.0569  1.2082
 8531SOL    HW226788   4.507   2.285   6.187 -0.2870 -0.2949  0.8819
 8532SOL     OW26789   8.255   1.365   1.919 -0.9113 -0.3988 -0.3503
 8532SOL    HW126790   8.321   1.302   1.946  0.6185  2.4477  3.4463
 8532SOL    HW226791   8.290   1.402   1.837 -0.6453 -2.5975 -1.3097
 8533SOL     OW26792   2.975   2.990   8.045 -0.5832 -0.1161 -0.4094
 8533SOL    HW126793   3.048   2.937   8.078 -0.8961 -1.0445 -1.1581
 8533SOL    HW226794   3.011   3.078   8.036 -0.3382  0.0600  1.8549
 8534SOL     OW26795   7.706   0.703   1.895  0.0089 -0.2313 -0.6220
 8534SOL    HW126796   7.732   0.626   1.946  0.7847 -0.1004 -0.8140
 8534SOL    HW226797   7.619   0.680   1.861  0.3382 -1.1321 -0.8993
 8535SOL     OW26798   2.214   3.104   4.688 -0.1643  0.2501  0.0134
 8535SOL    HW126799   2.188   3.067   4.604  2.4962  0.1033 -0.8147
 8535SOL    HW226800   2.208   3.031   4.749 -0.4425 -0.0802 -0.4053
 8536SOL     OW26801   4.287   8.145   2.592  0.1420  0.3035 -0.0854
 8536SOL    HW126802   4.350   8.216   2.603 -0.0711  0.5443 -0.4188
 8536SOL    HW226803   4.272   8.139   2.498  0.2352 -0.2533 -0.0710
 8537SOL     OW26804   6.917   2.757   3.220 -0.3831  0.9010  0.3208
 8537SOL    HW126805   6.885   2.695   3.155  0.7196 -1.1976  1.6592
 8537SOL    HW226806   6.843   2.771   3.279 -1.1009  2.1030 -0.8024
 8538SOL     OW26807   6.955   5.320   7.227 -0.5606  0.4731 -0.2450
 8538SOL    HW126808   6.961   5.308   7.322 -0.3209 -1.9768 -0.4979
 8538SOL    HW226809   7.010   5.395   7.208 -0.0714  0.5843  1.4802
 8539SOL     OW26810   0.438   6.594   1.309 -0.8405 -0.3120 -0.0649
 8539SOL    HW126811   0.443   6.690   1.311 -1.9040 -0.2158  2.9969
 8539SOL    HW226812   0.428   6.569   1.401 -0.0431 -3.4264 -0.7216
 8540SOL     OW26813   0.260   4.320   1.132 -0.1615 -0.1570  0.4311
 8540SOL    HW126814   0.333   4.314   1.193  0.9809 -0.2690 -0.8854
 8540SOL    HW226815   0.192   4.367   1.180  0.6309 -0.3808  1.8250
 8541SOL     OW26816   2.833   0.915   4.864 -0.1124 -0.3889  0.2999
 8541SOL    HW126817   2.741   0.936   4.878 -0.6969 -2.3953 -0.2613
 8541SOL    HW226818   2.862   0.977   4.797 -1.4335 -0.6397 -0.5278
 8542SOL     OW26819   4.311   1.759   3.791 -0.1942  0.0315 -0.6096
 8542SOL    HW126820   4.220   1.735   3.771 -1.0347  2.6181 -0.2894
 8542SOL    HW226821   4.325   1.726   3.880 -0.4184 -1.3270 -1.0550
 8543SOL     OW26822   2.799   4.566   5.423 -0.1980  0.2989  0.0282
 8543SOL    HW126823   2.841   4.625   5.485  1.1514  0.7572 -1.2668
 8543SOL    HW226824   2.843   4.482   5.437 -1.2915 -0.1426  1.0386
 8544SOL     OW26825   6.128   4.540   0.885 -0.1866  0.1041  0.0637
 8544SOL    HW126826   6.034   4.541   0.902 -0.2915  0.2179 -0.4969
 8544SOL    HW226827   6.145   4.451   0.854 -0.6146  0.8369 -2.4806
 8545SOL     OW26828   3.576   7.717   4.753 -0.4633  0.0316 -0.4646
 8545SOL    HW126829   3.558   7.804   4.789 -1.7308 -0.1094 -0.7068
 8545SOL    HW226830   3.576   7.731   4.658  0.6860  0.0011 -0.4831
 8546SOL     OW26831   8.410   1.816   7.792  0.1460  0.0817 -0.0135
 8546SOL    HW126832   8.483   1.855   7.840 -0.2611  0.5428  0.2399
 8546SOL    HW226833   8.446   1.736   7.754  0.2218 -0.8528  1.9198
 8547SOL     OW26834   2.317   0.533   2.547  0.4318 -0.1553  0.4041
 8547SOL    HW126835   2.392   0.546   2.489 -1.3258 -0.7939 -2.1776
 8547SOL    HW226836   2.247   0.503   2.489 -1.8783  0.5246  2.6703
 8548SOL     OW26837   6.403   4.014   8.207 -0.1077  0.2222 -0.4728
 8548SOL    HW126838   6.391   3.923   8.234  1.4310  0.6525  1.9820
 8548SOL    HW226839   6.404   4.011   8.111  0.6047 -2.4498 -0.4577
 8549SOL     OW26840   0.918   8.252   6.079 -0.1294  0.0574 -0.2272
 8549SOL    HW126841   0.850   8.316   6.059  1.0766  1.0313 -1.4670
 8549SOL    HW226842   0.956   8.282   6.162  1.0232  1.5481 -1.2382
 8550SOL     OW26843   5.166   5.901   1.936  0.3176 -0.4368 -0.2048
 8550SOL    HW126844   5.174   5.907   1.841 -0.0534 -1.6764 -0.3414
 8550SOL    HW226845   5.255   5.884   1.966  0.2940 -1.0064 -0.4369
 8551SOL     OW26846   4.085   2.976   5.803  0.5952 -0.3466  0.5052
 8551SOL    HW126847   4.103   2.902   5.746 -0.0488  0.1451 -0.3574
 8551SOL    HW226848   4.161   3.033   5.792  1.0738 -0.8445  1.1420
 8552SOL     OW26849   2.524   5.997   0.145  0.5373 -0.6891  0.0331
 8552SOL    HW126850   2.554   6.022   0.058  1.5740 -3.7028 -0.6000
 8552SOL    HW226851   2.590   5.935   0.176 -0.7695 -1.1040  2.1947
 8553SOL     OW26852   4.896   2.008   3.623  0.1101  0.6038  0.0178
 8553SOL    HW126853   4.966   2.037   3.682  0.9242  0.8854 -1.0515
 8553SOL    HW226854   4.826   2.072   3.635  0.4358  0.8991  0.3530
 8554SOL     OW26855   0.989   0.020   7.230  0.4725  0.5813  0.4109
 8554SOL    HW126856   1.067   0.029   7.286  0.2760  0.1455  0.7603
 8554SOL    HW226857   0.959  -0.070   7.245  0.9879  0.1160 -1.1529
 8555SOL     OW26858   7.680   6.388   3.891  0.7941 -0.3905  0.0400
 8555SOL    HW126859   7.645   6.307   3.929  1.3548 -0.3567  0.6406
 8555SOL    HW226860   7.618   6.456   3.919  0.6427 -0.5206  0.0254
 8556SOL     OW26861   8.021   6.643   5.594 -0.2086  0.0808  0.3057
 8556SOL    HW126862   8.024   6.626   5.500 -0.2840 -1.0579  0.4974
 8556SOL    HW226863   7.933   6.676   5.610  0.2125  1.5568 -0.2047
 8557SOL     OW26864   5.057   5.745   6.001  0.1458 -0.3824 -0.3451
 8557SOL    HW126865   5.113   5.756   5.923  1.8949 -0.5898  0.8364
 8557SOL    HW226866   5.111   5.777   6.073 -1.0925 -1.1014  0.9225
 8558SOL     OW26867   3.448   1.422   4.176 -0.7580  0.0614 -0.3735
 8558SOL    HW126868   3.517   1.356   4.170 -2.3192 -1.6213 -0.9337
 8558SOL    HW226869   3.490   1.504   4.151  1.9324 -0.1262  2.7940
 8559SOL     OW26870   3.456   8.027   2.516  0.5894  0.2269 -0.4804
 8559SOL    HW126871   3.394   8.029   2.590 -0.7570  0.7836 -1.5773
 8559SOL    HW226872   3.478   7.934   2.507 -0.2051 -0.0049 -0.1469
 8560SOL     OW26873   0.698   3.295   1.535 -0.3339  0.4885  0.5418
 8560SOL    HW126874   0.675   3.205   1.511 -0.2494  0.9750 -1.5975
 8560SOL    HW226875   0.738   3.288   1.621  0.4720 -1.6440  0.0521
 8561SOL     OW26876   0.837   4.762   7.960 -0.0956 -0.6929 -0.1259
 8561SOL    HW126877   0.769   4.739   8.023  0.6839  2.8315  2.3051
 8561SOL    HW226878   0.795   4.825   7.901  0.3267 -0.6981 -0.4390
 8562SOL     OW26879   8.576   6.325   3.034 -0.5371 -0.4341 -0.4755
 8562SOL    HW126880   8.536   6.240   3.051 -1.6509  0.1731  0.0390
 8562SOL    HW226881   8.650   6.329   3.094 -1.3929 -0.4256  0.6024
 8563SOL     OW26882   1.523   5.264   8.262 -0.4672  0.0319  0.0827
 8563SOL    HW126883   1.582   5.240   8.191 -0.5367  1.2799 -0.4283
 8563SOL    HW226884   1.578   5.310   8.325 -0.5745 -0.3114  0.4342
 8564SOL     OW26885   2.471   7.260   6.106 -0.0611 -0.0193 -0.1303
 8564SOL    HW126886   2.506   7.171   6.099 -2.2915 -0.8897 -1.3407
 8564SOL    HW226887   2.415   7.259   6.183 -0.3549  0.2243 -0.3341
 8565SOL     OW26888   7.812   1.616   3.043  0.2053 -0.6286 -0.5070
 8565SOL    HW126889   7.897   1.574   3.054  0.5364  0.4286  1.4651
 8565SOL    HW226890   7.831   1.709   3.045 -0.9714 -0.3770 -0.2439
 8566SOL     OW26891   8.398   7.922   1.343  0.0867 -0.6501 -0.6258
 8566SOL    HW126892   8.487   7.922   1.378  0.6763  0.5038 -2.0025
 8566SOL    HW226893   8.365   7.834   1.361  0.9053 -0.6150  1.3038
 8567SOL     OW26894   4.734   7.094   2.470  0.8056  0.1170 -0.1212
 8567SOL    HW126895   4.640   7.095   2.488  0.8395 -0.2437  0.0916
 8567SOL    HW226896   4.771   7.155   2.535  0.7547  0.0094  0.0083
 8568SOL     OW26897   2.191   1.745   2.408  0.6649 -0.4984  0.4723
 8568SOL    HW126898   2.216   1.757   2.500  0.3440 -1.3856  0.6936
 8568SOL    HW226899   2.259   1.688   2.372  0.4205 -0.7234  0.3563
 8569SOL     OW26900   6.758   3.342   0.345  0.1130 -0.7511 -0.0197
 8569SOL    HW126901   6.768   3.296   0.262  4.9186 -1.5052  0.6797
 8569SOL    HW226902   6.785   3.277   0.411  1.0016  1.1664  1.6160
 8570SOL     OW26903   1.572   8.499   3.164  0.1764 -0.6140 -0.1354
 8570SOL    HW126904   1.498   8.523   3.220  0.1549  1.0607 -0.8082
 8570SOL    HW226905   1.648   8.539   3.207  0.6160 -1.7443  0.1851
 8571SOL     OW26906   7.565   4.595   1.017  0.9433 -0.1211  0.3626
 8571SOL    HW126907   7.591   4.536   0.946 -2.8639 -3.8344  1.5884
 8571SOL    HW226908   7.491   4.643   0.982  0.6760 -0.0455  1.0251
 8572SOL     OW26909   3.666   6.434   7.337  0.0669  0.0501 -0.2340
 8572SOL    HW126910   3.600   6.442   7.268  0.9521  3.2175 -0.8964
 8572SOL    HW226911   3.617   6.448   7.418 -0.4713 -0.4109 -0.4666
 8573SOL     OW26912   1.696   0.558   2.739 -0.3553 -0.1470  0.2675
 8573SOL    HW126913   1.739   0.567   2.654  0.3500  1.9671  0.8056
 8573SOL    HW226914   1.664   0.645   2.760 -1.3270 -0.8189  1.7789
 8574SOL     OW26915   6.576   0.877   6.764  0.2412 -0.3599  0.3593
 8574SOL    HW126916   6.485   0.893   6.789  0.9160  2.3373  1.3844
 8574SOL    HW226917   6.570   0.828   6.682 -2.1240 -0.3618  0.4664
 8575SOL     OW26918   2.328   4.958   8.304 -0.1503  0.2716 -0.0851
 8575SOL    HW126919   2.330   5.044   8.346 -1.8000 -0.2139  1.1141
 8575SOL    HW226920   2.340   4.976   8.211  0.3002  1.7138  0.2290
 8576SOL     OW26921   5.010   3.243   6.337  0.5087  0.4593  0.0661
 8576SOL    HW126922   5.104   3.251   6.353  0.4075  1.9874  0.0750
 8576SOL    HW226923   4.971   3.318   6.383 -0.5763  0.5687 -0.9692
 8577SOL     OW26924   0.077   0.755   0.472 -0.4115  0.0403  0.4368
 8577SOL    HW126925  -0.013   0.786   0.480  0.0003  1.4298 -0.0513
 8577SOL    HW226926   0.131   0.832   0.490  0.6880 -0.7513  0.6691
 8578SOL     OW26927   3.397   0.390   6.705  0.5170  0.3364 -0.4160
 8578SOL    HW126928   3.480   0.432   6.686  0.4100 -0.1169 -2.0371
 8578SOL    HW226929   3.393   0.385   6.800  3.2859 -1.4623 -0.2843
 8579SOL     OW26930   3.067   1.832   5.666  0.2217  0.2979 -0.2854
 8579SOL    HW126931   3.154   1.852   5.698  0.5446 -0.0600 -0.9223
 8579SOL    HW226932   3.008   1.874   5.729  0.8411  0.2659  0.3247
 8580SOL     OW26933   0.712   6.079   5.925  0.3276  0.2754  0.6881
 8580SOL    HW126934   0.631   6.124   5.949  0.6673 -0.8049  4.4457
 8580SOL    HW226935   0.743   6.040   6.006  3.0630 -1.9305 -1.2177
 8581SOL     OW26936   4.973   1.629   7.445  0.2352  0.3680 -0.0046
 8581SOL    HW126937   4.969   1.548   7.496 -0.4709  1.2456  1.4057
 8581SOL    HW226938   4.950   1.602   7.356 -1.1710 -0.8012  0.6650
 8582SOL     OW26939   2.890   2.956   5.509 -0.1831  0.2603  0.3206
 8582SOL    HW126940   2.815   2.983   5.456  0.4761 -0.9180 -1.2880
 8582SOL    HW226941   2.872   2.992   5.596 -1.1353  2.5666 -0.7595
 8583SOL     OW26942   2.599   5.823   5.042 -0.3768  0.1159 -0.1331
 8583SOL    HW126943   2.653   5.760   5.088  0.1654  1.4524  1.1427
 8583SOL    HW226944   2.619   5.809   4.950  0.5437 -0.8198  0.1910
 8584SOL     OW26945   6.328   6.222   2.592 -0.3466  0.3176 -0.2940
 8584SOL    HW126946   6.277   6.295   2.626  0.6970  0.4316  1.1404
 8584SOL    HW226947   6.274   6.145   2.610 -0.8622  0.6127 -0.5736
 8585SOL     OW26948   7.992   4.534   1.305  0.2939 -0.5425 -0.4287
 8585SOL    HW126949   8.037   4.616   1.284  1.6888 -0.8172  1.2327
 8585SOL    HW226950   7.903   4.547   1.273  0.5792  1.4718 -0.5746
 8586SOL     OW26951   0.311   4.015   1.286 -0.2051 -0.1402  0.2761
 8586SOL    HW126952   0.399   4.041   1.312 -0.2700 -1.4016  1.9183
 8586SOL    HW226953   0.254   4.077   1.331 -0.2141 -0.6645  1.0086
 8587SOL     OW26954   1.273   2.617   0.047 -0.2108  0.0174  0.1148
 8587SOL    HW126955   1.360   2.622   0.087 -0.2323 -1.0332  0.3076
 8587SOL    HW226956   1.274   2.536  -0.004 -1.4442 -0.5950  1.0214
 8588SOL     OW26957   2.412   6.684   3.917 -0.3290  0.1422  0.1195
 8588SOL    HW126958   2.410   6.723   3.830  1.4761 -0.0587 -0.0403
 8588SOL    HW226959   2.360   6.604   3.909  1.2450 -0.7980 -1.2750
 8589SOL     OW26960   6.555   7.748   6.446  0.1482 -0.3596  0.1061
 8589SOL    HW126961   6.490   7.818   6.445  0.6983  0.1662 -0.5642
 8589SOL    HW226962   6.513   7.675   6.401  0.4156  0.3888 -1.4549
 8590SOL     OW26963   3.896   3.695   6.209 -0.0916  0.2861 -0.5052
 8590SOL    HW126964   3.971   3.638   6.194 -0.7426 -0.4221 -1.1952
 8590SOL    HW226965   3.850   3.655   6.283  0.4056  0.9417  0.1756
 8591SOL     OW26966   4.614   2.574   3.999  0.1258 -0.1760 -0.3077
 8591SOL    HW126967   4.645   2.626   4.073  0.5816  0.7473 -1.1234
 8591SOL    HW226968   4.532   2.617   3.973  0.7078  0.4099 -1.2338
 8592SOL     OW26969   3.202   0.218   8.208  0.3800  0.3265  0.0649
 8592SOL    HW126970   3.249   0.272   8.272 -0.5454  0.5113  0.6242
 8592SOL    HW226971   3.163   0.147   8.260 -0.2317  0.3744 -0.3106
 8593SOL     OW26972   1.926   3.257   2.208 -0.2469  0.2565 -1.0099
 8593SOL    HW126973   1.896   3.312   2.136 -3.3085  1.6443  1.0738
 8593SOL    HW226974   1.997   3.306   2.249  0.6561  0.0488 -2.2745
 8594SOL     OW26975   1.213   3.547   3.304  0.7712 -0.0068 -0.1237
 8594SOL    HW126976   1.145   3.498   3.350  0.9782 -1.0409 -0.8832
 8594SOL    HW226977   1.289   3.542   3.362  0.7205 -0.3740 -0.0878
 8595SOL     OW26978   2.800   0.756   0.329 -0.9573  0.4896  0.5662
 8595SOL    HW126979   2.823   0.831   0.385 -1.3473  0.5231  0.6847
 8595SOL    HW226980   2.868   0.691   0.348 -0.0902  1.1407 -0.2101
 8596SOL     OW26981   1.031   3.233   1.213  0.0310  0.1636 -0.5360
 8596SOL    HW126982   0.990   3.260   1.295 -1.1936  1.1630 -1.4206
 8596SOL    HW226983   1.076   3.151   1.233  1.7915  1.5646  1.7012
 8597SOL     OW26984   6.994   0.302   4.194  0.2742  0.2017  0.0847
 8597SOL    HW126985   6.991   0.233   4.127  0.2710  0.0553  0.2338
 8597SOL    HW226986   7.036   0.260   4.269  3.1012  1.2079 -0.7918
 8598SOL     OW26987   6.060   7.618   6.905  0.2767  0.3153  0.6491
 8598SOL    HW126988   6.063   7.642   6.997  1.4394  0.8850  0.4847
 8598SOL    HW226989   6.092   7.695   6.858 -0.3128  0.0404 -0.2307
 8599SOL     OW26990   4.145   2.033   0.765  0.5426 -0.6229  0.2105
 8599SOL    HW126991   4.179   2.110   0.811 -1.4743  0.3008  0.2709
 8599SOL    HW226992   4.120   1.973   0.835  0.9034 -0.8012  0.1919
 8600SOL     OW26993   5.246   3.066   0.362 -0.2027 -0.2350  0.5870
 8600SOL    HW126994   5.282   3.015   0.289 -1.9638 -1.6727  0.6738
 8600SOL    HW226995   5.203   3.141   0.320  0.5226  0.0455  0.3189
 8601SOL     OW26996   1.135   2.419   4.307 -0.6127 -0.0754  0.1828
 8601SOL    HW126997   1.072   2.379   4.246 -1.1172 -0.8643  1.1937
 8601SOL    HW226998   1.080   2.468   4.368 -0.1082  0.7160  0.0140
 8602SOL     OW26999   3.078   0.156   2.197  0.2342 -0.5393 -0.1585
 8602SOL    HW127000   3.094   0.247   2.172  1.6238 -0.5222  0.7567
 8602SOL    HW227001   3.003   0.130   2.142  0.3839  0.8594 -1.0818
 8603SOL     OW27002   3.973   5.923   2.025 -0.2015  0.2970  0.0154
 8603SOL    HW127003   4.067   5.940   2.024  0.1884 -1.2756  2.2649
 8603SOL    HW227004   3.940   5.968   2.102 -1.0403 -0.2178 -0.0219
 8604SOL     OW27005   2.472   8.258   5.684  0.4823 -0.0295 -0.1423
 8604SOL    HW127006   2.547   8.317   5.679  0.2654  0.6431  2.7455
 8604SOL    HW227007   2.510   8.171   5.688  1.1229  0.2686  0.6231
 8605SOL     OW27008   3.091   2.805   0.806 -0.3001  0.1091  0.4408
 8605SOL    HW127009   3.089   2.806   0.710 -1.4758  0.3083  0.4585
 8605SOL    HW227010   3.162   2.865   0.829 -0.4198  0.5424 -0.2954
 8606SOL     OW27011   4.511   4.117   3.533 -0.1867  0.0761 -0.0741
 8606SOL    HW127012   4.427   4.163   3.537  0.0547  0.5361 -0.2085
 8606SOL    HW227013   4.577   4.184   3.552  0.0911 -0.5011  1.0459
 8607SOL     OW27014   6.339   1.183   4.285 -0.2777 -0.4689 -0.3304
 8607SOL    HW127015   6.267   1.178   4.222 -1.5857  0.7656  0.9659
 8607SOL    HW227016   6.360   1.276   4.288  0.8799 -0.7303 -0.1328
 8608SOL     OW27017   4.428   4.022   2.228  0.3447  0.0302 -0.1737
 8608SOL    HW127018   4.385   4.095   2.183  0.5102  2.0757  2.6832
 8608SOL    HW227019   4.406   3.945   2.175 -2.7411  1.6244 -1.5085
 8609SOL     OW27020   6.888   8.248   2.776 -0.3573  0.1222 -0.3955
 8609SOL    HW127021   6.949   8.178   2.752  0.1399  0.3372  0.1996
 8609SOL    HW227022   6.900   8.314   2.708 -0.0589  0.0765 -0.3896
 8610SOL     OW27023   2.895   3.095   1.630  0.1359 -0.0118  0.8068
 8610SOL    HW127024   2.831   3.080   1.561 -0.9221 -0.2372  1.8091
 8610SOL    HW227025   2.843   3.110   1.709  1.3083 -0.9261  1.8007
 8611SOL     OW27026   1.415   1.262   1.054  0.0108  0.3130 -0.0215
 8611SOL    HW127027   1.376   1.266   1.141  0.7392 -2.3487  0.5144
 8611SOL    HW227028   1.497   1.214   1.066  1.0667  1.4882 -1.9052
 8612SOL     OW27029   3.328   7.387   2.443  0.2904  0.1884  0.4808
 8612SOL    HW127030   3.254   7.337   2.478  1.3323 -0.2382  2.1779
 8612SOL    HW227031   3.405   7.337   2.469  1.2548  1.4125  0.0664
 8613SOL     OW27032   8.248   6.013   0.762  0.2172 -0.1728 -0.0563
 8613SOL    HW127033   8.285   6.041   0.678  1.4161 -0.2642  0.4231
 8613SOL    HW227034   8.270   5.920   0.768  1.3208  0.1295  0.9430
 8614SOL     OW27035   6.215   1.614   6.865  0.0990  0.1164 -0.2348
 8614SOL    HW127036   6.166   1.603   6.784 -4.2009 -0.2824  2.1345
 8614SOL    HW227037   6.220   1.709   6.877 -0.8814  0.1693 -0.1380
 8615SOL     OW27038   1.821   4.705   7.532  0.0074  0.0713 -0.9391
 8615SOL    HW127039   1.775   4.661   7.460  1.9422 -0.7719 -1.7299
 8615SOL    HW227040   1.843   4.792   7.498  0.8009 -0.2785 -1.3612
 8616SOL     OW27041   0.171   0.672   1.736  0.0831 -0.0825  0.0266
 8616SOL    HW127042   0.115   0.659   1.813 -1.0574 -0.9736 -0.9142
 8616SOL    HW227043   0.154   0.762   1.710 -1.7441 -0.6188 -0.8282
 8617SOL     OW27044   5.077   6.199   1.196 -0.1986 -0.0047 -0.4365
 8617SOL    HW127045   5.003   6.145   1.226  0.0679 -1.9263 -2.9077
 8617SOL    HW227046   5.062   6.209   1.102  2.1744  0.4324 -0.8149
 8618SOL     OW27047   6.187   6.335   7.458 -0.9878  0.3520 -0.0771
 8618SOL    HW127048   6.152   6.411   7.505  1.0271  0.8823  0.6456
 8618SOL    HW227049   6.233   6.284   7.525  1.7059  0.9691 -1.3221
 8619SOL     OW27050   2.592   3.598   1.672  0.0012 -0.0706  0.0593
 8619SOL    HW127051   2.677   3.570   1.706  0.3293  0.0301 -0.6560
 8619SOL    HW227052   2.570   3.533   1.605 -0.4435 -0.0500  0.1857
 8620SOL     OW27053   2.262   1.012   0.967  0.2766 -0.5503  0.3620
 8620SOL    HW127054   2.232   1.043   0.882  0.6240  0.9713  0.7695
 8620SOL    HW227055   2.317   0.936   0.947 -0.8092 -1.1138 -0.6457
 8621SOL     OW27056   1.902   1.770   5.080  0.0466  0.1095 -0.0176
 8621SOL    HW127057   1.843   1.821   5.135 -0.0156 -0.9004  0.8875
 8621SOL    HW227058   1.846   1.704   5.040  0.2376  0.3451 -0.6904
 8622SOL     OW27059   0.654   3.195   3.824 -0.0227 -0.2708 -0.1412
 8622SOL    HW127060   0.564   3.194   3.790 -0.0422  0.9866 -0.1712
 8622SOL    HW227061   0.648   3.154   3.910 -0.1631 -2.5117 -1.1611
 8623SOL     OW27062   6.509   4.571   6.876 -0.0363 -0.4833 -0.0079
 8623SOL    HW127063   6.417   4.597   6.882  0.0991  0.3084 -1.0025
 8623SOL    HW227064   6.538   4.563   6.967 -1.2066 -1.2371  0.3200
 8624SOL     OW27065   2.799   8.476   5.608  0.4047 -0.0646  0.2858
 8624SOL    HW127066   2.886   8.480   5.648  0.4814 -0.1068  0.1256
 8624SOL    HW227067   2.742   8.521   5.670  0.4453 -0.5010  0.6444
 8625SOL     OW27068   0.910   3.080   5.543  0.4283 -0.0589 -0.2916
 8625SOL    HW127069   0.846   3.010   5.528  0.7141 -0.0078 -1.9576
 8625SOL    HW227070   0.980   3.038   5.593 -0.9789 -0.0518  1.7633
 8626SOL     OW27071   4.604   0.503   7.800 -1.0825 -0.1164 -0.3841
 8626SOL    HW127072   4.637   0.475   7.714  1.2798  0.6550  0.1999
 8626SOL    HW227073   4.588   0.596   7.790 -1.2065 -0.1085 -0.1058
 8627SOL     OW27074   1.124   2.116   7.010 -0.3225  0.3253 -0.5079
 8627SOL    HW127075   1.197   2.056   6.997 -0.4676  0.2432 -0.9693
 8627SOL    HW227076   1.152   2.174   7.081 -0.1718 -0.2690 -0.0738
 8628SOL     OW27077   0.650   4.427   5.184  0.1849  1.0386  0.5323
 8628SOL    HW127078   0.583   4.447   5.118  0.5538 -1.3956 -0.7029
 8628SOL    HW227079   0.633   4.336   5.207  0.9764  1.4026  2.8066
 8629SOL     OW27080   6.687   6.209   3.086  0.4702  0.7713  0.4243
 8629SOL    HW127081   6.679   6.272   3.014  1.9207 -0.1357 -0.5804
 8629SOL    HW227082   6.624   6.140   3.065  3.1702 -1.2227 -1.9420
 8630SOL     OW27083   8.371   3.672   1.350 -0.1557 -0.4241  0.1167
 8630SOL    HW127084   8.287   3.643   1.314 -0.1298 -0.2928 -0.0502
 8630SOL    HW227085   8.418   3.707   1.275 -0.5227  0.8590  0.4707
 8631SOL     OW27086   6.798   0.040   5.904 -0.8427 -0.0753 -0.3194
 8631SOL    HW127087   6.797   0.015   5.997  0.5072 -2.0510 -0.7691
 8631SOL    HW227088   6.881   0.085   5.892 -1.1295  0.4083 -0.5401
 8632SOL     OW27089   1.208   8.437   7.574  0.5273  0.8084 -0.2336
 8632SOL    HW127090   1.204   8.529   7.549 -0.2017  1.0619  0.7694
 8632SOL    HW227091   1.158   8.392   7.506  1.2063  1.0976 -0.9359
 8633SOL     OW27092   1.248   6.485   7.067  0.2748 -0.5384  0.1270
 8633SOL    HW127093   1.317   6.434   7.025  0.6614  0.4248 -0.4658
 8633SOL    HW227094   1.250   6.569   7.021 -0.5206 -0.0883  0.8829
 8634SOL     OW27095   1.569   6.333   6.853 -0.8264  0.7985  0.0752
 8634SOL    HW127096   1.627   6.258   6.835 -3.2801 -1.3469  0.5173
 8634SOL    HW227097   1.629   6.403   6.878  1.5920 -1.3240  0.7092
 8635SOL     OW27098   3.771   4.055   1.064 -0.3884 -0.0008 -0.5316
 8635SOL    HW127099   3.704   4.081   1.127 -2.1529  1.3742 -2.8662
 8635SOL    HW227100   3.783   3.961   1.080 -1.7403  0.0288  0.9273
 8636SOL     OW27101   5.345   7.008   0.364  0.6985  0.0585  0.0061
 8636SOL    HW127102   5.258   6.996   0.327  0.4228 -0.8668  0.9351
 8636SOL    HW227103   5.384   7.077   0.310 -0.3022 -0.0798 -0.9295
 8637SOL     OW27104   7.677   5.212   3.158  0.2262 -0.1557 -0.0097
 8637SOL    HW127105   7.675   5.125   3.118 -1.3350 -0.1063 -0.1172
 8637SOL    HW227106   7.599   5.255   3.123  0.7859  1.1656  0.3246
 8638SOL     OW27107   5.383   8.251   5.713  0.1282  0.3819 -0.9093
 8638SOL    HW127108   5.328   8.175   5.694 -1.3447  0.7767  1.4051
 8638SOL    HW227109   5.452   8.247   5.647 -0.4174 -2.4161 -1.4570
 8639SOL     OW27110   1.527   4.573   0.139 -0.8515 -0.0607  0.3681
 8639SOL    HW127111   1.501   4.664   0.156 -1.3134  0.4477 -2.4934
 8639SOL    HW227112   1.611   4.581   0.093 -2.3324 -0.7443 -2.7360
 8640SOL     OW27113   4.390   0.341   1.107  0.1882 -0.2800 -0.4606
 8640SOL    HW127114   4.300   0.310   1.118 -0.2963  0.9743 -0.7519
 8640SOL    HW227115   4.423   0.291   1.033  0.0649 -1.4293  0.2308
 8641SOL     OW27116   1.868   5.580   3.176 -0.0219  0.1991  0.1484
 8641SOL    HW127117   1.829   5.663   3.148 -1.4887 -1.1102 -1.9656
 8641SOL    HW227118   1.933   5.605   3.241 -0.1284  3.0457 -0.7076
 8642SOL     OW27119   4.209   5.773   3.170  0.5243  0.1801 -0.0253
 8642SOL    HW127120   4.183   5.849   3.118  0.9588 -0.1988 -0.8182
 8642SOL    HW227121   4.248   5.712   3.106  0.2001 -0.6998  0.5922
 8643SOL     OW27122   4.111   5.421   3.738  0.5549  0.0780  0.3684
 8643SOL    HW127123   4.142   5.501   3.697  1.4641  0.1299  1.1254
 8643SOL    HW227124   4.031   5.399   3.691  1.9842 -0.3352 -2.0020
 8644SOL     OW27125   3.704   1.798   5.880 -0.1547  0.0060 -0.0657
 8644SOL    HW127126   3.630   1.857   5.893  0.3833  1.1137 -1.7466
 8644SOL    HW227127   3.771   1.831   5.940 -0.1414  0.6067 -0.4040
 8645SOL     OW27128   6.555   0.198   7.560  0.1867  0.5185 -0.4598
 8645SOL    HW127129   6.647   0.172   7.559  0.0393 -0.1262  0.7723
 8645SOL    HW227130   6.519   0.158   7.639 -1.4477 -0.1901 -1.5031
 8646SOL     OW27131   2.200   4.713   3.515  0.0378  0.4834  0.1671
 8646SOL    HW127132   2.175   4.671   3.433 -2.4228  0.1055  1.0280
 8646SOL    HW227133   2.209   4.640   3.577 -2.2736  0.9631  1.1836
 8647SOL     OW27134   3.731   7.310   5.180 -0.2659 -0.2205 -0.5297
 8647SOL    HW127135   3.771   7.374   5.121 -0.1267 -0.6282 -0.8798
 8647SOL    HW227136   3.806   7.267   5.222 -0.3625  0.0126 -0.1147
 8648SOL     OW27137   5.060   7.081   8.026  0.0747 -0.1757 -0.0046
 8648SOL    HW127138   5.060   6.986   8.016  0.5702 -0.0510 -1.3834
 8648SOL    HW227139   5.140   7.100   8.076  0.8033 -0.3822 -1.0622
 8649SOL     OW27140   5.605   5.990   7.657  0.1487  0.3408  0.0340
 8649SOL    HW127141   5.602   5.986   7.561 -2.9834  1.6329 -0.0580
 8649SOL    HW227142   5.521   5.951   7.684  0.4569  1.0917  2.1721
 8650SOL     OW27143   3.255   5.734   5.130  0.1604  0.7071 -0.1054
 8650SOL    HW127144   3.172   5.746   5.177  0.1127 -1.0460  0.3131
 8650SOL    HW227145   3.230   5.695   5.046  0.4622  1.4598 -0.5541
 8651SOL     OW27146   3.864   7.090   6.830 -0.0230  0.5972  0.2505
 8651SOL    HW127147   3.785   7.139   6.855 -0.5636 -0.0833 -0.1167
 8651SOL    HW227148   3.833   7.003   6.808  0.6384  0.7355 -1.3360
 8652SOL     OW27149   0.154   1.668   1.758  0.1310  0.0806 -0.4701
 8652SOL    HW127150   0.241   1.708   1.757  0.9478 -1.5583  0.4129
 8652SOL    HW227151   0.164   1.588   1.706 -0.2101 -1.2970  1.4987
 8653SOL     OW27152   2.311   5.467   4.271 -0.0765 -0.3436  0.2872
 8653SOL    HW127153   2.392   5.508   4.303  0.3686 -1.8162  1.1607
 8653SOL    HW227154   2.339   5.414   4.196 -0.6460  0.9121 -0.8468
 8654SOL     OW27155   2.192   5.614   6.552 -0.3835  0.1949  0.0965
 8654SOL    HW127156   2.153   5.659   6.628 -2.1809  0.4960 -0.9511
 8654SOL    HW227157   2.219   5.685   6.494  1.3363 -0.0254  0.5664
 8655SOL     OW27158   5.710   4.853   3.864 -0.1094 -0.4551  0.2242
 8655SOL    HW127159   5.743   4.823   3.949  0.3975 -0.7791 -0.0816
 8655SOL    HW227160   5.628   4.804   3.853 -0.7097  0.3376  0.9744
 8656SOL     OW27161   2.731   3.683   3.116  0.2198  0.0192  0.3888
 8656SOL    HW127162   2.698   3.752   3.174  0.6105  0.7255 -0.2092
 8656SOL    HW227163   2.690   3.701   3.032  0.8437 -0.0790  0.0613
 8657SOL     OW27164   5.357   0.255   4.269 -0.3403 -0.6925 -0.1982
 8657SOL    HW127165   5.368   0.180   4.327 -0.9057  0.8250  1.9916
 8657SOL    HW227166   5.278   0.298   4.300  0.7526  1.6269 -0.4120
 8658SOL     OW27167   6.336   1.547   0.454  0.1637 -0.0146 -0.7408
 8658SOL    HW127168   6.352   1.640   0.438  0.4607  0.2097  0.6556
 8658SOL    HW227169   6.423   1.508   0.462  0.0429 -0.4415 -1.4197
 8659SOL     OW27170   6.713   2.831   2.808 -0.0499 -0.3737 -0.4689
 8659SOL    HW127171   6.736   2.799   2.896 -0.1189  0.1264 -0.2615
 8659SOL    HW227172   6.624   2.865   2.818  1.2500  3.3563  0.3249
 8660SOL     OW27173   3.474   3.586   6.984 -0.2428 -0.1714  0.1428
 8660SOL    HW127174   3.387   3.620   6.961  0.7487  0.9347 -2.2667
 8660SOL    HW227175   3.520   3.661   7.021  0.0056 -0.5066  0.5162
 8661SOL     OW27176   4.764   7.628   2.707  0.0047  0.1302 -0.2214
 8661SOL    HW127177   4.805   7.583   2.633  0.3657 -1.3873  0.8473
 8661SOL    HW227178   4.743   7.715   2.673  0.3418 -0.4391 -2.0412
 8662SOL     OW27179   1.312   4.264   7.210 -0.5059  0.3011 -0.5997
 8662SOL    HW127180   1.332   4.310   7.292  0.2868  0.6068 -0.9474
 8662SOL    HW227181   1.375   4.300   7.147  0.3758 -1.4909 -0.8072
 8663SOL     OW27182   8.488   5.253   0.164  0.2890  0.0820  0.1784
 8663SOL    HW127183   8.393   5.243   0.164  0.3180 -0.8831  2.4087
 8663SOL    HW227184   8.521   5.164   0.178  1.5697  0.3009 -1.3029
 8664SOL     OW27185   6.495   7.978   1.469 -0.1614  0.1652 -0.1441
 8664SOL    HW127186   6.413   7.984   1.518 -0.5698  0.6609 -0.8794
 8664SOL    HW227187   6.493   7.891   1.430 -0.0296 -0.0704  0.3664
 8665SOL     OW27188   8.014   2.200   4.773  0.2923  0.2065 -0.3108
 8665SOL    HW127189   7.986   2.286   4.740  0.8663  0.4688 -0.1207
 8665SOL    HW227190   7.933   2.151   4.783 -0.0352  0.7026 -0.4913
 8666SOL     OW27191   5.876   2.412   6.708  0.6660  0.0311  0.0873
 8666SOL    HW127192   5.874   2.403   6.803 -1.2775 -1.3082 -0.0296
 8666SOL    HW227193   5.866   2.506   6.693 -0.9051  0.0960  1.2173
 8667SOL     OW27194   3.196   5.765   7.858 -0.0573  0.0465 -0.1174
 8667SOL    HW127195   3.286   5.749   7.885 -0.6956 -0.0003  2.1531
 8667SOL    HW227196   3.166   5.681   7.824  0.9776  0.2811 -1.7194
 8668SOL     OW27197   3.639   7.042   6.349  0.7519 -0.1887 -0.3449
 8668SOL    HW127198   3.624   7.111   6.414 -1.2777 -0.1607 -0.7840
 8668SOL    HW227199   3.584   6.969   6.377  1.0394 -0.7624 -1.1992
 8669SOL     OW27200   2.545   4.314   1.197  0.1261 -0.3631  0.0410
 8669SOL    HW127201   2.507   4.230   1.224 -1.4395 -0.2412 -1.5704
 8669SOL    HW227202   2.634   4.312   1.230 -0.1274 -2.3191  0.7335
 8670SOL     OW27203   0.259   6.142   4.937  0.0589  0.6222 -0.5139
 8670SOL    HW127204   0.277   6.162   5.029 -0.9961 -2.0872  0.3650
 8670SOL    HW227205   0.167   6.166   4.926 -1.1429 -2.8944  0.4794
 8671SOL     OW27206   4.082   0.643   5.856  0.4452 -0.4577 -0.6212
 8671SOL    HW127207   4.121   0.599   5.781 -1.1424 -0.5758 -1.4059
 8671SOL    HW227208   4.142   0.715   5.875  0.4959  0.0385 -2.4945
 8672SOL     OW27209   5.099   3.190   2.580 -0.0627 -0.4215 -0.0568
 8672SOL    HW127210   5.015   3.235   2.583 -0.5203 -1.2374 -0.2814
 8672SOL    HW227211   5.142   3.224   2.501 -0.4931 -0.5442 -0.3425
 8673SOL     OW27212   5.804   3.447   2.013  0.0579 -0.2692  0.3125
 8673SOL    HW127213   5.761   3.517   1.964 -1.8632 -0.8138  1.1364
 8673SOL    HW227214   5.891   3.481   2.033  0.7185  0.2287 -2.8773
 8674SOL     OW27215   2.395   0.688   0.098 -0.9324  0.5050  0.0514
 8674SOL    HW127216   2.311   0.670   0.141 -1.3836  1.8429 -0.2430
 8674SOL    HW227217   2.392   0.636   0.018 -0.4483 -1.3272  1.1607
 8675SOL     OW27218   3.707   6.195   2.882  0.1019  1.2834  0.6353
 8675SOL    HW127219   3.649   6.231   2.949 -0.5138 -0.6890  1.2362
 8675SOL    HW227220   3.782   6.160   2.930 -0.4283 -0.3130  0.3524
 8676SOL     OW27221   2.680   7.706   5.031  0.2664  0.0781 -0.6509
 8676SOL    HW127222   2.668   7.657   4.951 -1.4482 -0.6533  0.0022
 8676SOL    HW227223   2.771   7.690   5.056  0.5581 -0.4065 -1.9511
 8677SOL     OW27224   6.553   1.494   1.178 -0.1734 -0.7061  0.4761
 8677SOL    HW127225   6.488   1.508   1.109  0.6444 -1.2274 -0.4348
 8677SOL    HW227226   6.503   1.460   1.252 -0.6841 -3.3977 -0.9779
 8678SOL     OW27227   4.320   5.612   2.364 -0.6414  0.1932 -0.0326
 8678SOL    HW127228   4.282   5.566   2.440 -0.3275  0.0149  0.0178
 8678SOL    HW227229   4.246   5.625   2.305 -1.3692  2.2039  1.1947
 8679SOL     OW27230   6.671   1.666   2.286 -0.0603 -0.0342 -0.5962
 8679SOL    HW127231   6.753   1.696   2.247  0.8616 -0.5423  0.8948
 8679SOL    HW227232   6.649   1.587   2.237  1.8824 -1.5325  0.7918
 8680SOL     OW27233   0.862   4.235   2.767 -0.2526  0.3529  0.1249
 8680SOL    HW127234   0.767   4.224   2.758 -0.2645 -0.4765  1.0867
 8680SOL    HW227235   0.877   4.328   2.749 -1.3896  0.7095  0.9017
 8681SOL     OW27236   5.677   5.429   6.883  0.1018  0.0463 -0.3271
 8681SOL    HW127237   5.641   5.443   6.795  1.0861 -0.9916 -0.9289
 8681SOL    HW227238   5.619   5.364   6.922  0.4711 -0.5670 -0.7679
 8682SOL     OW27239   6.453   5.734   7.669 -0.0547 -0.6281  0.3106
 8682SOL    HW127240   6.471   5.644   7.698  0.4778 -0.3234  0.9762
 8682SOL    HW227241   6.443   5.728   7.574 -1.2350 -1.5762  0.4736
 8683SOL     OW27242   5.013   2.648   6.119  0.0828  0.1082  0.6224
 8683SOL    HW127243   5.075   2.637   6.047 -1.7546  0.1161 -1.0352
 8683SOL    HW227244   4.951   2.714   6.088 -2.5047 -2.0235  0.9053
 8684SOL     OW27245   3.268   3.440   0.212  0.4330 -0.2936  0.1455
 8684SOL    HW127246   3.226   3.474   0.134  1.1998  1.7448  0.5703
 8684SOL    HW227247   3.353   3.409   0.182 -0.1871 -1.7861 -0.2023
 8685SOL     OW27248   8.554   3.119   3.225 -0.2506 -0.5084  0.4054
 8685SOL    HW127249   8.489   3.081   3.284  0.0232 -0.2592  0.8692
 8685SOL    HW227250   8.628   3.142   3.281 -0.0291 -0.1708 -0.0180
 8686SOL     OW27251   3.949   4.066   3.710  0.3719 -0.0046 -0.1294
 8686SOL    HW127252   3.900   4.020   3.640  1.0216 -0.4027 -0.3291
 8686SOL    HW227253   3.995   3.996   3.756 -0.5102  0.1901  1.0810
 8687SOL     OW27254   5.701   3.578   3.189 -0.6586  0.0688  0.2976
 8687SOL    HW127255   5.624   3.531   3.156 -0.7494  0.5253 -0.1493
 8687SOL    HW227256   5.666   3.659   3.224 -0.4429  0.0253  0.6157
 8688SOL     OW27257   6.350   3.510   3.064 -0.4425  0.6969 -0.0961
 8688SOL    HW127258   6.397   3.573   3.119 -0.0180  0.3968 -0.1127
 8688SOL    HW227259   6.414   3.483   2.999 -0.1567 -0.8638  0.7910
 8689SOL     OW27260   3.730   5.911   0.694  0.1726  0.2224 -0.0557
 8689SOL    HW127261   3.646   5.928   0.736  1.8188  2.3508  2.6608
 8689SOL    HW227262   3.773   5.846   0.750  1.0375  0.4362 -0.4518
 8690SOL     OW27263   1.930   2.944   7.677  0.8111 -0.0010 -0.2842
 8690SOL    HW127264   1.909   2.902   7.760 -2.1087  0.3631 -0.7355
 8690SOL    HW227265   1.857   3.003   7.661  2.2257  1.3535 -2.2290
 8691SOL     OW27266   0.845   3.204   1.911  0.4518  0.1702 -0.0727
 8691SOL    HW127267   0.814   3.159   1.991 -0.2995  0.3984 -0.2227
 8691SOL    HW227268   0.893   3.280   1.944  0.0332  0.3365  0.1671
 8692SOL     OW27269   2.602   3.230   2.888  0.1468  0.1580 -0.3805
 8692SOL    HW127270   2.533   3.165   2.895 -1.2407  1.5542 -0.4241
 8692SOL    HW227271   2.610   3.246   2.794 -0.2627  0.7585 -0.3254
 8693SOL     OW27272   2.236   6.324   8.025 -0.4163  0.4051  0.0481
 8693SOL    HW127273   2.326   6.348   8.045  0.2542 -2.3308  0.7336
 8693SOL    HW227274   2.187   6.346   8.105 -0.1282  0.8470  0.1039
 8694SOL     OW27275   8.391   5.964   5.183 -0.0508 -0.4054 -0.6223
 8694SOL    HW127276   8.375   5.951   5.089 -1.3089 -1.4437 -0.2917
 8694SOL    HW227277   8.483   5.943   5.195  0.3473  0.5486 -1.7477
 8695SOL     OW27278   0.448   5.739   1.859 -0.7083  0.4862 -0.5224
 8695SOL    HW127279   0.454   5.725   1.764 -1.9250  0.8786 -0.6782
 8695SOL    HW227280   0.460   5.833   1.870  0.4070  0.3147 -0.1767
 8696SOL     OW27281   5.996   1.026   5.345 -0.1126  0.2830  0.0122
 8696SOL    HW127282   6.004   1.094   5.413  0.0675  2.2065 -1.8103
 8696SOL    HW227283   6.024   1.070   5.264 -0.9253 -1.7147 -1.4422
 8697SOL     OW27284   7.508   2.435   6.922  0.4494  0.2385  0.2141
 8697SOL    HW127285   7.423   2.466   6.891  0.8696 -0.3609 -1.6984
 8697SOL    HW227286   7.499   2.340   6.928  1.2374  0.0645 -0.9674
 8698SOL     OW27287   0.576   6.356   1.757 -0.0096  0.2064  0.1654
 8698SOL    HW127288   0.494   6.307   1.761 -0.4749  1.0404  2.0670
 8698SOL    HW227289   0.632   6.314   1.822  0.2654  0.9876  0.4411
 8699SOL     OW27290   3.344   4.124   0.382 -0.1465  0.2016 -0.1254
 8699SOL    HW127291   3.419   4.125   0.441  0.0628  0.6612 -0.3934
 8699SOL    HW227292   3.308   4.213   0.387 -1.5779 -0.4094  1.1349
 8700SOL     OW27293   4.350   5.642   6.764 -0.4428 -0.3365 -0.4691
 8700SOL    HW127294   4.269   5.671   6.722  0.6385  0.0759 -2.3941
 8700SOL    HW227295   4.386   5.722   6.804 -1.0134 -0.5418  0.4810
 8701SOL     OW27296   8.349   3.239   2.395 -0.1079 -0.4869 -0.3281
 8701SOL    HW127297   8.297   3.227   2.315  1.2618 -1.5180 -1.0966
 8701SOL    HW227298   8.290   3.285   2.455 -1.5506 -0.7002 -1.5274
 8702SOL     OW27299   3.253   6.293   1.363 -0.1842 -0.0453  0.9598
 8702SOL    HW127300   3.176   6.264   1.314 -1.0779  0.8750  1.7677
 8702SOL    HW227301   3.323   6.298   1.298 -0.7534 -1.0680  0.2430
 8703SOL     OW27302   2.566   1.686   1.623 -0.1048  0.0141 -0.5168
 8703SOL    HW127303   2.604   1.767   1.590  2.8415 -1.2257 -0.4791
 8703SOL    HW227304   2.612   1.669   1.705 -0.0437 -2.1064 -0.9385
 8704SOL     OW27305   7.648   8.135   1.672 -0.0014  0.0856  0.1663
 8704SOL    HW127306   7.571   8.080   1.686  0.4675 -0.2624  1.4345
 8704SOL    HW227307   7.722   8.074   1.675  0.3720  0.4703 -0.6931
 8705SOL     OW27308   7.574   0.082   5.851 -0.0288  0.0838  0.4107
 8705SOL    HW127309   7.610   0.137   5.782 -1.0081  0.0847 -0.1119
 8705SOL    HW227310   7.646   0.071   5.913  0.2633  1.7326  0.3971
 8706SOL     OW27311   3.736   3.163   2.450 -0.0397 -0.0521 -0.1102
 8706SOL    HW127312   3.720   3.231   2.384  0.0515 -0.8693 -1.0079
 8706SOL    HW227313   3.700   3.198   2.531 -0.2758  0.9303 -0.6279
 8707SOL     OW27314   3.543   2.232   5.126  0.4695 -0.0817 -0.3625
 8707SOL    HW127315   3.567   2.298   5.061 -0.4191  1.6371  0.9473
 8707SOL    HW227316   3.525   2.153   5.076  0.9912  0.8333 -2.0666
 8708SOL     OW27317   8.293   0.470   1.999 -0.9419 -0.0225  0.1850
 8708SOL    HW127318   8.201   0.485   1.975  0.1643  0.8860 -4.7376
 8708SOL    HW227319   8.299   0.376   2.015 -2.7239 -0.1171  0.4827
 8709SOL     OW27320   4.667   2.967   3.753 -0.6697  0.2692 -0.3256
 8709SOL    HW127321   4.666   2.898   3.687 -0.3078 -0.0251 -0.0333
 8709SOL    HW227322   4.589   3.019   3.735  0.4226  1.3558 -2.1965
 8710SOL     OW27323   0.608   8.116   1.348 -0.5778 -0.0585 -0.4153
 8710SOL    HW127324   0.614   8.211   1.340 -0.1184 -0.0740 -0.2725
 8710SOL    HW227325   0.696   8.089   1.374 -1.1212 -0.3477  1.2567
 8711SOL     OW27326   6.257   6.610   7.999 -0.1802  0.0562 -0.3798
 8711SOL    HW127327   6.260   6.703   8.022  0.6291  0.0927 -0.6185
 8711SOL    HW227328   6.260   6.564   8.083  1.3993  0.2158 -0.3267
 8712SOL     OW27329   5.354   1.999   7.211 -0.2064 -0.3971 -0.0024
 8712SOL    HW127330   5.273   1.977   7.255  0.0034 -0.6850  0.2396
 8712SOL    HW227331   5.387   1.916   7.177 -0.2104 -0.2245 -0.4369
 8713SOL     OW27332   7.988   0.405   7.330  0.0593 -0.2045 -0.0103
 8713SOL    HW127333   8.079   0.379   7.316  0.4095  0.5872  0.7093
 8713SOL    HW227334   7.971   0.471   7.262 -0.3282 -1.1184 -0.8236
 8714SOL     OW27335   0.089   7.996   3.662  0.5493  0.0325  0.2717
 8714SOL    HW127336   0.084   7.904   3.689 -0.4418 -0.6062 -1.8905
 8714SOL    HW227337   0.005   8.033   3.688 -0.0956 -0.3814 -1.1511
 8715SOL     OW27338   3.025   4.707   5.135  0.2648  0.2267 -0.0477
 8715SOL    HW127339   2.952   4.647   5.150  0.9712 -0.5914  0.2160
 8715SOL    HW227340   2.987   4.780   5.086 -0.5247 -0.6372 -0.7573
 8716SOL     OW27341   2.367   4.679   1.828  0.5658 -0.4231  0.0960
 8716SOL    HW127342   2.450   4.724   1.812  1.3394 -1.4475  1.0941
 8716SOL    HW227343   2.358   4.619   1.754  0.6339 -0.2062 -0.0905
 8717SOL     OW27344   3.868   5.977   6.450  0.4257  0.2891 -0.5285
 8717SOL    HW127345   3.928   6.015   6.514  1.6248 -1.2267 -0.7023
 8717SOL    HW227346   3.789   5.958   6.499  0.8095  0.4809  0.1747
 8718SOL     OW27347   0.556   1.478   2.718 -0.4922 -0.1211  0.5628
 8718SOL    HW127348   0.633   1.512   2.672 -0.2178 -2.1911 -0.6306
 8718SOL    HW227349   0.504   1.555   2.740  0.9991  1.1705 -0.2952
 8719SOL     OW27350   5.231   1.192   5.834  0.1868  0.1807  0.6430
 8719SOL    HW127351   5.296   1.135   5.791  0.2050  0.5596  0.1522
 8719SOL    HW227352   5.283   1.261   5.874  0.1321  0.1230  0.8108
 8720SOL     OW27353   2.198   4.658   6.070  0.3884  0.1487  0.6448
 8720SOL    HW127354   2.138   4.715   6.116  1.5369  1.4646  0.5678
 8720SOL    HW227355   2.146   4.581   6.048 -1.8811  2.0890 -1.2666
 8721SOL     OW27356   6.609   0.975   5.286  0.2359  0.7960  0.0395
 8721SOL    HW127357   6.522   0.934   5.284  0.9370 -0.7225 -0.4489
 8721SOL    HW227358   6.608   1.036   5.213 -0.8371  1.7317  0.7906
 8722SOL     OW27359   1.249   3.978   6.543 -0.0716  0.6246  0.0243
 8722SOL    HW127360   1.172   4.024   6.575 -0.8492 -0.1703 -0.6259
 8722SOL    HW227361   1.269   4.019   6.459  0.5937  1.2310  0.4730
 8723SOL     OW27362   0.353   2.089   1.980 -0.3202  0.2072 -0.1858
 8723SOL    HW127363   0.270   2.043   1.992  0.3521 -0.6660  1.4949
 8723SOL    HW227364   0.393   2.090   2.067  1.8071 -0.1037 -1.0906
 8724SOL     OW27365   0.981   0.896   7.743  0.3776  0.7316 -0.1544
 8724SOL    HW127366   0.998   0.830   7.675  0.2373 -0.0267  0.5446
 8724SOL    HW227367   0.899   0.937   7.716  0.2237  0.3083 -0.3441
 8725SOL     OW27368   4.980   3.687   4.149  0.2873  0.1295  0.5202
 8725SOL    HW127369   4.983   3.783   4.146 -0.1798  0.1351  0.2069
 8725SOL    HW227370   4.945   3.661   4.064 -1.0272 -0.2593  1.1581
 8726SOL     OW27371   4.223   3.505   1.476  0.3831 -0.2533 -0.1340
 8726SOL    HW127372   4.318   3.507   1.478  0.4260 -0.2051 -1.3539
 8726SOL    HW227373   4.197   3.486   1.566  1.5008  0.9508  0.4640
 8727SOL     OW27374   6.108   2.073   1.630  0.0991  0.0013 -0.1039
 8727SOL    HW127375   6.113   2.167   1.612 -0.4637  0.1369  0.4496
 8727SOL    HW227376   6.146   2.063   1.717 -0.1767 -0.2368 -0.0107
 8728SOL     OW27377   6.169   4.045   7.310 -0.0128 -0.6688  0.2031
 8728SOL    HW127378   6.246   4.063   7.363  0.0757 -1.7845  0.4764
 8728SOL    HW227379   6.166   4.117   7.246  0.5828  0.0088  0.9172
 8729SOL     OW27380   7.538   3.613   8.526 -0.4026  0.5075 -0.0525
 8729SOL    HW127381   7.524   3.597   8.433  0.6204  2.6426 -0.6355
 8729SOL    HW227382   7.450   3.629   8.561 -0.7686 -0.0454 -0.6976
 8730SOL     OW27383   5.754   7.867   4.618 -0.4862 -0.1075  0.2733
 8730SOL    HW127384   5.781   7.872   4.526 -0.2302  1.0495  0.3893
 8730SOL    HW227385   5.727   7.956   4.639  0.1128 -0.1962  1.5169
 8731SOL     OW27386   3.368   1.015   3.876  0.4271  0.5022 -0.4413
 8731SOL    HW127387   3.370   1.111   3.876 -0.2847  0.5159 -0.0669
 8731SOL    HW227388   3.298   0.992   3.936  2.5279 -0.3182  1.8657
 8732SOL     OW27389   7.238   8.238   6.266 -0.1738  0.0129  0.1891
 8732SOL    HW127390   7.298   8.216   6.337  0.4789 -1.8204 -0.8540
 8732SOL    HW227391   7.294   8.271   6.196 -0.4610 -0.8502 -0.4644
 8733SOL     OW27392   8.386   2.975   5.859  0.9091  0.2542 -0.2173
 8733SOL    HW127393   8.440   2.974   5.780  0.1721 -1.2545 -0.7373
 8733SOL    HW227394   8.318   3.039   5.842  1.2436  0.5450 -0.4618
 8734SOL     OW27395   2.462   7.098   7.743  0.1005  0.0532  0.4840
 8734SOL    HW127396   2.398   7.041   7.701  1.7654 -2.1074  0.6817
 8734SOL    HW227397   2.437   7.099   7.835 -0.1424 -0.0644  0.4186
 8735SOL     OW27398   5.820   3.209   8.129  0.3129  0.1210 -0.0054
 8735SOL    HW127399   5.881   3.275   8.098  0.4278 -0.4236 -0.9867
 8735SOL    HW227400   5.774   3.179   8.051  0.0993 -0.7959  0.4453
 8736SOL     OW27401   0.841   4.966   0.586 -0.2194  0.1796  0.2725
 8736SOL    HW127402   0.768   4.985   0.527  0.0348 -0.4514 -0.2656
 8736SOL    HW227403   0.846   4.870   0.587  0.8096  0.2222  0.0336
 8737SOL     OW27404   3.393   5.185   5.070  0.4575 -0.5467 -0.4798
 8737SOL    HW127405   3.301   5.160   5.082  0.5550 -0.4539  0.5447
 8737SOL    HW227406   3.421   5.215   5.157  1.5924 -1.0151 -0.6709
 8738SOL     OW27407   4.826   1.373   3.763 -0.1118 -0.0293  0.0205
 8738SOL    HW127408   4.844   1.363   3.670 -1.5460  0.2255 -0.3109
 8738SOL    HW227409   4.758   1.440   3.768  0.3320  0.3621  1.2958
 8739SOL     OW27410   0.678   5.434   0.559 -0.0564  0.2515 -0.8792
 8739SOL    HW127411   0.770   5.432   0.532 -0.1766 -0.4481 -1.2535
 8739SOL    HW227412   0.664   5.350   0.602 -0.0818  1.0283  0.7101
 8740SOL     OW27413   2.081   2.157   3.332  0.3483 -0.8892  0.3550
 8740SOL    HW127414   2.122   2.084   3.287  0.4591  0.1222 -1.2635
 8740SOL    HW227415   2.020   2.195   3.268 -0.9579 -0.5649  1.7096
 8741SOL     OW27416   5.846   7.024   5.453 -0.0362 -0.1025  0.5784
 8741SOL    HW127417   5.940   7.030   5.474  0.4292  0.9357 -1.5420
 8741SOL    HW227418   5.829   7.100   5.398 -1.9207 -0.8021  0.1270
 8742SOL     OW27419   4.408   3.367   3.106 -0.3111  0.3384 -0.1244
 8742SOL    HW127420   4.460   3.288   3.122 -0.7521 -0.1317 -0.9606
 8742SOL    HW227421   4.470   3.439   3.121 -0.4451 -0.0331  2.8221
 8743SOL     OW27422   7.275   3.395   7.604  0.2786 -0.5935 -0.0725
 8743SOL    HW127423   7.299   3.310   7.566 -0.5716 -0.5397 -0.7688
 8743SOL    HW227424   7.324   3.459   7.552  0.5888 -0.6267  0.1745
 8744SOL     OW27425   7.332   2.881   6.429  0.5614  0.2184 -0.1223
 8744SOL    HW127426   7.292   2.956   6.385 -0.8367  1.0266  2.3555
 8744SOL    HW227427   7.261   2.840   6.478  2.0145 -0.5102  1.5232
 8745SOL     OW27428   7.553   2.494   1.921 -0.6944 -0.1453  0.2258
 8745SOL    HW127429   7.467   2.496   1.879 -0.8296 -0.6821  0.4673
 8745SOL    HW227430   7.540   2.539   2.005 -0.6056  0.2642  0.0188
 8746SOL     OW27431   6.555   8.009   4.933  0.2059 -0.2683  0.1449
 8746SOL    HW127432   6.531   8.049   4.849  0.6940 -0.5261 -0.1205
 8746SOL    HW227433   6.472   7.981   4.971 -0.3587  2.3343  1.0469
 8747SOL     OW27434   0.866   1.718   6.127 -0.3563 -0.5247 -0.3444
 8747SOL    HW127435   0.787   1.751   6.170 -0.2152  0.5721 -0.8804
 8747SOL    HW227436   0.838   1.640   6.080 -0.8884 -0.7328  0.2944
 8748SOL     OW27437   8.563   1.532   6.650  0.2608 -0.1520 -0.0419
 8748SOL    HW127438   8.534   1.576   6.570  0.2656  0.5961  0.3598
 8748SOL    HW227439   8.657   1.520   6.639 -0.1290 -2.5822 -1.3502
 8749SOL     OW27440   0.219   1.981   6.728 -0.2686  0.0852  0.3301
 8749SOL    HW127441   0.211   1.932   6.647 -1.3325  0.6530  0.0722
 8749SOL    HW227442   0.208   2.073   6.702 -0.1847  0.3134  1.0595
 8750SOL     OW27443   7.428   1.417   4.001 -0.2994 -0.2719  0.2635
 8750SOL    HW127444   7.481   1.488   3.965  1.0468 -0.9778  0.8175
 8750SOL    HW227445   7.337   1.445   3.985  0.2039  0.2313 -2.1551
 8751SOL     OW27446   1.384   3.046   4.545 -0.0836 -0.3878 -0.2129
 8751SOL    HW127447   1.372   2.959   4.507  3.2739 -0.2089 -2.1084
 8751SOL    HW227448   1.466   3.040   4.593 -0.4899  1.4065  0.7966
 8752SOL     OW27449   7.415   6.965   1.510  0.5582 -0.2425 -0.3951
 8752SOL    HW127450   7.374   7.047   1.536 -0.2117 -0.4066 -1.0523
 8752SOL    HW227451   7.497   6.963   1.559  0.1841  0.4997  0.2919
 8753SOL     OW27452   5.995   7.400   6.724  0.1759 -0.0065  0.2772
 8753SOL    HW127453   6.065   7.335   6.726 -0.5633 -0.8145  0.5048
 8753SOL    HW227454   6.021   7.466   6.788 -0.0764 -1.1635  1.6141
 8754SOL     OW27455   1.909   4.656   5.789 -0.0025  0.0985  0.0643
 8754SOL    HW127456   1.852   4.609   5.850  0.6144  1.2846  1.6254
 8754SOL    HW227457   1.914   4.745   5.825 -0.9865  1.3535 -2.6831
 8755SOL     OW27458   3.055   2.486   2.874  0.8814 -0.3117 -0.4942
 8755SOL    HW127459   3.138   2.517   2.838  0.6823 -0.7424 -1.3578
 8755SOL    HW227460   2.992   2.556   2.856  0.7571 -0.5751 -1.1063
 8756SOL     OW27461   7.116   5.734   1.254 -0.1669 -0.1328  0.5216
 8756SOL    HW127462   7.072   5.806   1.208 -0.6252 -1.0362 -0.5096
 8756SOL    HW227463   7.082   5.655   1.212  0.0611 -0.9771  1.8625
 8757SOL     OW27464   2.297   5.950   1.610 -0.1349  0.1822  0.1529
 8757SOL    HW127465   2.339   5.910   1.687 -0.4836  0.9363  0.7553
 8757SOL    HW227466   2.215   5.902   1.600  0.5391 -0.8631 -0.6330
 8758SOL     OW27467   4.977   1.526   5.732  0.7241 -0.5580 -0.1791
 8758SOL    HW127468   4.934   1.556   5.651  1.2665  1.0391  0.0984
 8758SOL    HW227469   5.000   1.435   5.714 -0.8840 -0.8312 -1.1067
 8759SOL     OW27470   2.533   7.754   7.669  0.2481  0.5544  0.0875
 8759SOL    HW127471   2.511   7.694   7.598  0.6143  0.4632  0.0465
 8759SOL    HW227472   2.462   7.818   7.669  1.6216  2.2549 -2.2609
 8760SOL     OW27473   4.034   7.460   2.112 -0.3593  0.3374 -0.3475
 8760SOL    HW127474   4.108   7.417   2.069  0.7394  1.4308  0.3996
 8760SOL    HW227475   3.991   7.391   2.161 -0.5052 -0.5409 -1.6770
 8761SOL     OW27476   4.933   7.382   7.746  0.4915 -0.0511  0.1289
 8761SOL    HW127477   5.007   7.339   7.701  0.9917  0.1690  0.7247
 8761SOL    HW227478   4.920   7.329   7.825 -0.2569 -0.3215 -0.1696
 8762SOL     OW27479   5.308   3.555   4.621  0.4665  0.1815 -0.1474
 8762SOL    HW127480   5.344   3.472   4.652  0.4615  0.0902 -0.3831
 8762SOL    HW227481   5.252   3.531   4.548 -1.3582  0.1400  1.2033
 8763SOL     OW27482   7.007   1.284   3.995  0.2236 -0.1227  0.0714
 8763SOL    HW127483   6.944   1.339   3.948  0.0613  1.1776  1.7445
 8763SOL    HW227484   6.955   1.236   4.059  0.5880 -1.0654 -0.3234
 8764SOL     OW27485   8.402   0.276   0.388  0.5931  0.3397  0.5120
 8764SOL    HW127486   8.319   0.318   0.366  0.8787 -0.0286 -1.3946
 8764SOL    HW227487   8.468   0.343   0.372  0.7379  0.4702  1.5419
 8765SOL     OW27488   4.413   7.490   7.882  0.2321  0.3579 -0.3340
 8765SOL    HW127489   4.499   7.465   7.849 -0.7250 -1.7086 -1.4538
 8765SOL    HW227490   4.382   7.413   7.929 -1.4587  0.6574 -0.8926
 8766SOL     OW27491   4.506   6.140   2.568 -0.1861 -0.1868 -0.3968
 8766SOL    HW127492   4.493   6.235   2.569 -1.2148 -0.3147 -0.6227
 8766SOL    HW227493   4.601   6.129   2.555  0.0491  0.8005  0.3371
 8767SOL     OW27494   7.158   1.022   8.605 -0.2979  0.0793 -0.2400
 8767SOL    HW127495   7.165   0.986   8.516  0.9968 -1.7690  0.5383
 8767SOL    HW227496   7.118   0.952   8.656  2.5107 -0.5111  1.3897
 8768SOL     OW27497   4.961   7.839   8.376  0.5952  0.0987 -0.2627
 8768SOL    HW127498   5.017   7.783   8.429 -0.6131  0.3161  1.3372
 8768SOL    HW227499   5.021   7.883   8.315  2.1235  0.1315  1.1976
 8769SOL     OW27500   2.770   8.480   4.169  0.7226  0.2159 -0.0625
 8769SOL    HW127501   2.715   8.413   4.129 -1.6206  1.5663  0.7194
 8769SOL    HW227502   2.841   8.493   4.106  0.2834 -1.7257 -1.0357
 8770SOL     OW27503   7.896   3.500   0.303  0.1193  0.4026 -0.4147
 8770SOL    HW127504   7.861   3.498   0.214 -1.0430 -1.0200  0.0505
 8770SOL    HW227505   7.840   3.562   0.350 -0.6993 -0.5369 -0.1232
 8771SOL     OW27506   5.241   0.960   4.028  0.1003  0.0711 -0.1801
 8771SOL    HW127507   5.146   0.970   4.020  0.0799 -0.4413 -0.6975
 8771SOL    HW227508   5.255   0.865   4.023  0.6485  0.1544 -0.2657
 8772SOL     OW27509   1.370   7.647   6.348  0.4899 -0.1674 -0.9060
 8772SOL    HW127510   1.322   7.716   6.302  1.0908 -0.2244 -1.6361
 8772SOL    HW227511   1.316   7.569   6.338  0.1059  0.0626 -0.6105
 8773SOL     OW27512   6.551   4.960   1.799 -0.5174 -0.1191 -0.5477
 8773SOL    HW127513   6.559   5.034   1.859  0.8608  0.3221 -1.2448
 8773SOL    HW227514   6.476   4.910   1.833 -0.6908  0.9082  0.6578
 8774SOL     OW27515   0.147   1.573   3.996 -0.0505  0.0609  0.1191
 8774SOL    HW127516   0.098   1.574   4.079 -0.7975  1.7123 -0.2990
 8774SOL    HW227517   0.085   1.608   3.932  1.3536  1.3228 -0.6111
 8775SOL     OW27518   0.969   1.122   6.470  0.0504  0.1808 -0.1881
 8775SOL    HW127519   1.017   1.062   6.528 -0.1916 -0.3139 -0.4974
 8775SOL    HW227520   0.997   1.209   6.498 -0.1530 -0.0448  0.7632
 8776SOL     OW27521   4.642   0.751   2.980 -0.2834  0.3915 -0.2524
 8776SOL    HW127522   4.616   0.661   2.960 -2.6145  1.4545 -2.6679
 8776SOL    HW227523   4.571   0.786   3.034  0.0139  1.0917 -0.3027
 8777SOL     OW27524   8.089   7.928   5.472 -0.2973  0.0935 -0.5108
 8777SOL    HW127525   8.051   7.996   5.417  0.0516  0.6079 -0.1140
 8777SOL    HW227526   8.093   7.851   5.414  1.9075  1.1410 -1.8839
 8778SOL     OW27527   2.470   5.533   8.058 -0.6260 -0.3900  0.3802
 8778SOL    HW127528   2.485   5.623   8.087 -0.9647  0.2475 -1.2844
 8778SOL    HW227529   2.439   5.542   7.967 -1.0489 -2.1636  0.3081
 8779SOL     OW27530   2.015   2.129   0.744 -0.4983 -0.1076  0.7363
 8779SOL    HW127531   2.078   2.063   0.772 -0.3017 -0.3940 -0.3098
 8779SOL    HW227532   1.982   2.095   0.660 -1.8977  0.1296  1.1737
 8780SOL     OW27533   4.628   4.424   4.718  0.3502  0.7021  0.0603
 8780SOL    HW127534   4.674   4.427   4.802  1.3824  0.4948 -0.4857
 8780SOL    HW227535   4.594   4.512   4.706  2.6861  1.5611 -0.6509
 8781SOL     OW27536   8.471   7.384   5.152 -0.0627  0.6839 -0.1494
 8781SOL    HW127537   8.392   7.416   5.196  0.8596  0.9557  1.3719
 8781SOL    HW227538   8.479   7.294   5.181  0.2132  0.6713 -0.2674
 8782SOL     OW27539   0.050   1.157   0.412 -0.0444 -0.0181  0.4705
 8782SOL    HW127540   0.125   1.112   0.449  0.5846  0.8943  0.3315
 8782SOL    HW227541   0.037   1.234   0.468 -0.3454  0.2820  0.0042
 8783SOL     OW27542   5.077   8.469   0.980  0.2699 -0.5759  0.3004
 8783SOL    HW127543   5.121   8.475   0.896  0.0463 -1.7905  0.0706
 8783SOL    HW227544   5.075   8.559   1.013 -0.9380  0.1668 -1.6414
 8784SOL     OW27545   1.347   7.985   7.893 -0.5961  0.1440 -0.1756
 8784SOL    HW127546   1.338   7.893   7.916 -0.5062  0.5788  1.8309
 8784SOL    HW227547   1.369   7.985   7.800  1.4719 -1.9703  0.2148
 8785SOL     OW27548   0.513   5.635   2.919 -0.3237  0.8192  0.3793
 8785SOL    HW127549   0.446   5.631   2.851  0.7251  0.6816 -0.6916
 8785SOL    HW227550   0.590   5.671   2.874  0.9954 -1.1019  0.9739
 8786SOL     OW27551   4.383   6.391   0.591  0.0104  0.2072  0.4823
 8786SOL    HW127552   4.413   6.388   0.500 -0.3254 -2.2307  0.3819
 8786SOL    HW227553   4.387   6.483   0.615  0.8780  0.8033 -1.7441
 8787SOL     OW27554   3.339   4.676   5.774  0.0966  0.5799  0.1593
 8787SOL    HW127555   3.324   4.769   5.794 -0.1448  0.1621  2.1016
 8787SOL    HW227556   3.252   4.644   5.748  0.0445  0.7555  0.1126
 8788SOL     OW27557   5.800   3.032   1.433  0.1045 -0.1680 -0.5817
 8788SOL    HW127558   5.832   3.064   1.348  0.5076  1.3303  0.1059
 8788SOL    HW227559   5.790   3.111   1.486 -1.8365 -0.8885  0.2224
 8789SOL     OW27560   0.666   3.022   2.095 -0.0889 -0.8659 -0.1918
 8789SOL    HW127561   0.670   3.062   2.183  1.1025 -0.6960 -0.3077
 8789SOL    HW227562   0.625   3.089   2.041 -0.0395 -0.6309  0.0564
 8790SOL     OW27563   3.351   1.508   5.063 -0.7268 -0.5035 -0.1238
 8790SOL    HW127564   3.293   1.543   5.131 -1.1013 -0.7279 -0.3299
 8790SOL    HW227565   3.303   1.435   5.025  0.4293 -1.9059  0.9475
 8791SOL     OW27566   4.027   2.047   8.391 -0.7074 -0.2650  0.6825
 8791SOL    HW127567   4.007   2.104   8.317  0.9071 -0.0003  0.4230
 8791SOL    HW227568   4.066   2.105   8.457 -0.1038 -0.8714  0.8693
 8792SOL     OW27569   7.862   1.785   5.036 -0.2121 -0.4283  0.5113
 8792SOL    HW127570   7.877   1.833   5.117  0.3751 -1.0051  0.7483
 8792SOL    HW227571   7.775   1.749   5.046 -1.5784  2.2740 -0.5349
 8793SOL     OW27572   8.561   1.271   3.803  0.3956  0.0504  0.7203
 8793SOL    HW127573   8.535   1.217   3.728  0.7505 -1.9886  1.9971
 8793SOL    HW227574   8.493   1.338   3.809 -0.5839 -0.8124 -0.3630
 8794SOL     OW27575   0.758   8.150   0.721 -0.3659 -0.3846 -0.3869
 8794SOL    HW127576   0.716   8.106   0.647  0.2527 -1.2967 -0.2128
 8794SOL    HW227577   0.846   8.113   0.725  1.4417  3.1523 -2.2210
 8795SOL     OW27578   0.977   1.582   8.587 -0.0606 -0.3004 -0.0111
 8795SOL    HW127579   0.992   1.581   8.682 -0.3542 -2.1266  0.0485
 8795SOL    HW227580   1.004   1.495   8.557 -0.1179  0.1938 -1.5952
 8796SOL     OW27581   6.594   5.311   7.981 -0.4002 -0.0501  0.0749
 8796SOL    HW127582   6.534   5.248   7.941 -1.1321 -0.0670  1.1464
 8796SOL    HW227583   6.542   5.353   8.050  0.4663  0.8000  0.2332
 8797SOL     OW27584   8.524   3.222   6.533 -0.0810 -0.5182 -0.6162
 8797SOL    HW127585   8.447   3.198   6.481 -1.3067  1.6340  0.0905
 8797SOL    HW227586   8.500   3.304   6.575  2.0569 -0.5721  0.8670
 8798SOL     OW27587   0.928   2.601   4.113 -0.4850  0.0798  0.4003
 8798SOL    HW127588   0.944   2.509   4.095  1.6820  0.2636  1.0617
 8798SOL    HW227589   0.900   2.638   4.029 -0.4452 -0.9790 -0.0896
 8799SOL     OW27590   0.294   8.342   0.323 -0.0911  0.1203  0.4511
 8799SOL    HW127591   0.217   8.285   0.325 -0.4597  0.6348  2.7602
 8799SOL    HW227592   0.309   8.358   0.229 -3.1815  0.5817 -0.0492
 8800SOL     OW27593   7.867   5.830   8.007 -0.1996  1.0187  0.5618
 8800SOL    HW127594   7.796   5.803   8.065 -1.8078  1.2864 -1.1955
 8800SOL    HW227595   7.934   5.762   8.018 -1.5719 -0.3512  0.7909
 8801SOL     OW27596   3.853   6.628   2.311  0.1284 -0.3703  0.1034
 8801SOL    HW127597   3.820   6.698   2.255 -0.8273  0.7510  2.0026
 8801SOL    HW227598   3.805   6.550   2.283 -0.3640  0.1746 -0.6022
 8802SOL     OW27599   2.992   6.387   6.434  0.8033  0.0501 -0.4793
 8802SOL    HW127600   2.954   6.474   6.444  3.2980  1.3315 -1.3321
 8802SOL    HW227601   3.020   6.383   6.343  0.6221 -1.7257 -0.4945
 8803SOL     OW27602   3.542   7.629   3.339 -0.1825 -0.2713  0.1857
 8803SOL    HW127603   3.580   7.705   3.382  0.5817  0.5823 -1.8589
 8803SOL    HW227604   3.453   7.624   3.373 -0.5217  2.0645 -0.1956
 8804SOL     OW27605   5.557   7.073   6.988  0.0790 -0.2271  0.1906
 8804SOL    HW127606   5.480   7.030   7.026 -0.7379  0.6430 -0.4240
 8804SOL    HW227607   5.614   7.000   6.960 -1.4064 -0.9533 -1.1206
 8805SOL     OW27608   2.275   3.549   4.063 -0.2741  0.1608  0.2162
 8805SOL    HW127609   2.360   3.550   4.018 -0.5834 -0.3471 -0.3834
 8805SOL    HW227610   2.254   3.457   4.072 -0.6611  0.2840  0.5629
 8806SOL     OW27611   0.882   2.411   2.284 -0.2324  0.9081  0.1624
 8806SOL    HW127612   0.823   2.446   2.217 -1.1963 -0.7033  0.0856
 8806SOL    HW227613   0.825   2.355   2.338  0.9805  0.3714  0.9235
 8807SOL     OW27614   6.702   4.579   5.782  0.3898  0.2603  0.0545
 8807SOL    HW127615   6.691   4.558   5.689 -1.1593 -0.8438  0.4548
 8807SOL    HW227616   6.619   4.618   5.808 -0.2109 -1.8369  1.5642
 8808SOL     OW27617   0.789   8.178   0.985 -0.1783  0.4236 -0.6524
 8808SOL    HW127618   0.758   8.170   0.895 -1.8152  0.9944 -0.1792
 8808SOL    HW227619   0.722   8.134   1.038  0.0088  1.3355  0.3914
 8809SOL     OW27620   6.859   2.448   5.816  0.3864 -0.1613  0.1449
 8809SOL    HW127621   6.803   2.519   5.784 -1.9212 -0.9752  2.0532
 8809SOL    HW227622   6.815   2.368   5.786  0.8993 -0.8192  1.1046
 8810SOL     OW27623   4.083   2.157   2.984  0.0679  0.0630 -0.2909
 8810SOL    HW127624   4.042   2.173   3.069  0.2154 -3.3327  0.5744
 8810SOL    HW227625   4.175   2.179   2.998 -0.1113  0.5943  0.0873
 8811SOL     OW27626   1.520   4.770   3.185 -0.0656  0.3223 -0.3125
 8811SOL    HW127627   1.522   4.809   3.273 -1.6296  0.7411 -0.4368
 8811SOL    HW227628   1.563   4.834   3.129 -1.7478  1.4860 -0.3461
 8812SOL     OW27629   6.744   3.141   2.955  0.4107  0.0909  0.2515
 8812SOL    HW127630   6.791   3.063   2.924 -0.0134 -0.2645  0.4968
 8812SOL    HW227631   6.790   3.214   2.914  0.9969 -0.2691  0.2494
 8813SOL     OW27632   7.583   5.899   4.177  0.1078  0.2821  0.1706
 8813SOL    HW127633   7.503   5.933   4.138 -0.3103  0.0919  0.8621
 8813SOL    HW227634   7.581   5.929   4.268 -0.0802 -1.2584  0.6939
 8814SOL     OW27635   6.426   7.087   4.713 -0.1278  0.0567  0.1724
 8814SOL    HW127636   6.333   7.095   4.691 -0.1443  0.5800  0.4242
 8814SOL    HW227637   6.460   7.025   4.648 -0.4949  0.4237 -0.3842
 8815SOL     OW27638   0.642   4.282   4.161  0.3723  0.0904 -0.4796
 8815SOL    HW127639   0.597   4.280   4.245 -0.4857 -1.5444 -0.9525
 8815SOL    HW227640   0.575   4.259   4.097  1.3855 -0.2359 -1.4456
 8816SOL     OW27641   7.663   7.405   3.526 -0.5082 -0.7865  0.0315
 8816SOL    HW127642   7.632   7.415   3.437 -3.2112 -0.6487  0.9127
 8816SOL    HW227643   7.596   7.446   3.581  0.2200 -2.2946  2.2295
 8817SOL     OW27644   3.252   1.641   3.783  0.7442 -0.0273 -0.1430
 8817SOL    HW127645   3.347   1.636   3.767  0.7182  1.4173 -0.9085
 8817SOL    HW227646   3.244   1.655   3.877  1.2562 -0.6590  0.0057
 8818SOL     OW27647   5.901   2.229   6.137 -0.2489 -0.0905 -0.3182
 8818SOL    HW127648   5.958   2.277   6.197 -1.7984  1.7360 -0.2114
 8818SOL    HW227649   5.862   2.160   6.190  1.0666 -0.7290 -0.1496
 8819SOL     OW27650   7.447   5.906   2.474 -0.2646  0.2145  0.1844
 8819SOL    HW127651   7.475   5.927   2.385 -0.7618 -0.2653 -0.0905
 8819SOL    HW227652   7.364   5.952   2.485 -0.6789 -0.4963  0.0595
 8820SOL     OW27653   5.538   4.545   0.232 -1.0149  0.2538  0.1952
 8820SOL    HW127654   5.612   4.511   0.284 -0.6677 -1.0017 -1.0487
 8820SOL    HW227655   5.541   4.639   0.246  0.9385  0.2585  0.0769
 8821SOL     OW27656   1.395   2.723   0.844  0.1493 -0.2993  0.0032
 8821SOL    HW127657   1.383   2.632   0.817 -3.2721 -0.2392  0.8930
 8821SOL    HW227658   1.377   2.774   0.765 -0.4696 -0.3511  0.1068
 8822SOL     OW27659   7.605   5.856   1.342  0.4925  0.0676  0.0805
 8822SOL    HW127660   7.616   5.849   1.437  0.9842 -0.7921 -0.0280
 8822SOL    HW227661   7.684   5.815   1.306  0.1710  0.1205 -0.7000
 8823SOL     OW27662   4.000   4.744   5.515 -0.1164  0.3802 -0.0695
 8823SOL    HW127663   3.955   4.682   5.457  0.5243 -0.0067 -0.1609
 8823SOL    HW227664   3.933   4.770   5.578 -0.0934 -1.3447  0.7077
 8824SOL     OW27665   3.237   3.383   1.964  0.2405 -0.3680 -0.1481
 8824SOL    HW127666   3.314   3.433   1.992 -0.3973  2.0766 -2.4278
 8824SOL    HW227667   3.273   3.306   1.921  1.4341  0.3644 -0.5149
 8825SOL     OW27668   7.766   7.588   5.217 -0.4362  0.1380 -0.3700
 8825SOL    HW127669   7.773   7.580   5.122  0.5246  1.3695 -0.4289
 8825SOL    HW227670   7.798   7.676   5.236 -1.4976  0.2597  1.0151
 8826SOL     OW27671   4.306   4.746   6.172 -0.1144 -0.8402 -0.6082
 8826SOL    HW127672   4.336   4.662   6.205  1.0985 -1.1781 -2.4323
 8826SOL    HW227673   4.274   4.727   6.083  0.8307  0.7137 -1.3215
 8827SOL     OW27674   4.128   3.912   0.920  0.5525 -0.3513  0.3833
 8827SOL    HW127675   4.105   3.983   0.981  0.2778  0.7306 -0.9383
 8827SOL    HW227676   4.209   3.942   0.878  0.2057 -0.6199 -0.4960
 8828SOL     OW27677   1.303   2.955   1.366 -0.2942 -0.2835  0.3565
 8828SOL    HW127678   1.242   2.996   1.305  0.1746 -0.5020 -0.2760
 8828SOL    HW227679   1.250   2.890   1.413 -0.3584 -1.1807 -0.8878
 8829SOL     OW27680   2.499   7.387   7.631 -0.0887  0.2386  0.2877
 8829SOL    HW127681   2.496   7.323   7.559 -1.3387 -0.0483  0.5656
 8829SOL    HW227682   2.493   7.472   7.588 -1.6449  0.0447  0.0598
 8830SOL     OW27683   6.101   0.917   6.499  0.2105 -0.3986  0.1619
 8830SOL    HW127684   6.079   0.826   6.479  1.1629 -0.8418  1.0278
 8830SOL    HW227685   6.195   0.915   6.516  0.3385  0.8469 -0.2951
 8831SOL     OW27686   7.197   8.434   2.026 -0.1576  0.2344 -0.1835
 8831SOL    HW127687   7.116   8.485   2.030  1.1827  2.3894  2.1035
 8831SOL    HW227688   7.195   8.380   2.106  0.9303  0.8461  0.2841
 8832SOL     OW27689   7.183   7.782   0.670 -0.0106  0.0923  0.3952
 8832SOL    HW127690   7.101   7.749   0.706  0.7902 -1.5193  0.8250
 8832SOL    HW227691   7.241   7.792   0.747  1.3667 -2.3475 -0.2317
 8833SOL     OW27692   2.174   4.082   4.502  0.1902  0.2814  0.2228
 8833SOL    HW127693   2.144   4.046   4.419 -0.0243  1.0190 -0.0254
 8833SOL    HW227694   2.269   4.073   4.499  0.1746  0.2104 -0.0587
 8834SOL     OW27695   7.838   7.934   3.971  0.0314 -0.2143 -0.1196
 8834SOL    HW127696   7.895   8.009   3.986 -0.4688 -0.2717  2.8062
 8834SOL    HW227697   7.787   7.926   4.052  0.1487 -3.7772 -0.2115
 8835SOL     OW27698   5.198   7.575   2.207 -0.1774 -0.0413 -0.4893
 8835SOL    HW127699   5.173   7.589   2.299 -1.0433  0.7046 -0.8284
 8835SOL    HW227700   5.234   7.659   2.180 -1.8275  0.4008 -1.4208
 8836SOL     OW27701   4.668   6.170   8.144 -0.4816 -0.1548 -0.2222
 8836SOL    HW127702   4.689   6.257   8.111 -2.5564  0.5727  0.2256
 8836SOL    HW227703   4.655   6.181   8.238  0.1194 -1.1306 -0.0097
 8837SOL     OW27704   7.312   7.744   3.596 -0.6681 -0.0229  0.5820
 8837SOL    HW127705   7.355   7.819   3.556 -0.6557 -0.1802  0.2973
 8837SOL    HW227706   7.251   7.782   3.659 -0.8941  0.2366  0.2095
 8838SOL     OW27707   1.067   8.134   3.284  1.0213  0.0632 -0.5458
 8838SOL    HW127708   0.995   8.196   3.282  0.7144 -0.1930  1.0816
 8838SOL    HW227709   1.052   8.077   3.208  0.2380  0.7910 -0.9524
 8839SOL     OW27710   8.193   3.501   5.015 -0.4360 -0.0134  0.3719
 8839SOL    HW127711   8.215   3.594   5.007  0.7399 -0.2155  1.0306
 8839SOL    HW227712   8.132   3.497   5.089  0.5344  0.1065  1.2053
 8840SOL     OW27713   2.459   0.518   2.019  0.3702 -0.5430  0.3212
 8840SOL    HW127714   2.502   0.432   2.022  1.1295 -0.1441  1.7153
 8840SOL    HW227715   2.530   0.581   2.034 -0.4186  0.2308  0.8957
 8841SOL     OW27716   3.953   7.692   5.625 -0.2601  1.0546  0.1890
 8841SOL    HW127717   3.891   7.744   5.675 -0.6998  0.7034  0.0260
 8841SOL    HW227718   3.970   7.743   5.546  1.1876  2.0675  1.0997
 8842SOL     OW27719   1.704   4.961   0.014  0.6747  0.1778  0.1661
 8842SOL    HW127720   1.711   5.057   0.013  3.1601  0.0648  1.1971
 8842SOL    HW227721   1.635   4.942  -0.050 -1.3350  2.7300  1.3979
 8843SOL     OW27722   1.742   2.780   4.063 -0.6232  0.1619  1.0480
 8843SOL    HW127723   1.660   2.755   4.020  0.1361  1.1351 -1.0626
 8843SOL    HW227724   1.765   2.864   4.024  1.4365 -0.1317  1.5511
 8844SOL     OW27725   1.646   4.060   2.694 -0.4626  0.0817  0.0491
 8844SOL    HW127726   1.718   4.082   2.754 -0.7976  0.8177  0.1876
 8844SOL    HW227727   1.596   4.141   2.685 -2.4258 -0.8796  1.4946
 8845SOL     OW27728   3.575   5.479   6.886 -0.4516  0.5847 -0.7667
 8845SOL    HW127729   3.548   5.400   6.838  1.0634 -1.2179  1.1617
 8845SOL    HW227730   3.561   5.457   6.978  0.8866  2.2202 -0.1257
 8846SOL     OW27731   5.085   5.720   2.980 -0.3647  0.5594 -0.0337
 8846SOL    HW127732   5.096   5.703   3.074 -1.1313 -0.2448 -0.0789
 8846SOL    HW227733   5.087   5.634   2.940 -1.7947  0.7550 -0.5631
 8847SOL     OW27734   0.038   1.191   6.911  0.3469 -0.0708 -0.6963
 8847SOL    HW127735   0.076   1.186   6.824  0.7819  2.0072 -0.6927
 8847SOL    HW227736  -0.050   1.225   6.897  0.7854  1.3373 -0.3255
 8848SOL     OW27737   1.176   4.112   8.327  0.1900  0.0343 -0.2556
 8848SOL    HW127738   1.214   4.115   8.239 -0.9923  0.2685 -0.7823
 8848SOL    HW227739   1.243   4.149   8.384  0.0834  2.0873 -1.3883
 8849SOL     OW27740   7.625   4.544   0.620 -0.2884  0.0124 -0.2292
 8849SOL    HW127741   7.662   4.619   0.669  1.8761 -1.0938 -0.0344
 8849SOL    HW227742   7.668   4.548   0.535  0.7993 -1.6356  0.1877
 8850SOL     OW27743   1.984   7.838   3.415 -0.2860  0.3604  0.7367
 8850SOL    HW127744   1.927   7.763   3.435  0.1714  0.3243  1.9556
 8850SOL    HW227745   2.064   7.821   3.464  1.0222  0.1548 -1.3285
 8851SOL     OW27746   6.801   5.403   5.580  0.6392 -0.4021 -0.6270
 8851SOL    HW127747   6.745   5.347   5.526  0.1836 -0.4147 -0.1494
 8851SOL    HW227748   6.797   5.489   5.538  0.0268 -0.3305 -0.4304
 8852SOL     OW27749   0.109   2.307   7.042  0.0153 -0.3044  0.0019
 8852SOL    HW127750   0.060   2.324   6.962  0.2676  1.4128  0.1790
 8852SOL    HW227751   0.043   2.315   7.112  0.3385  1.1462  0.1712
 8853SOL     OW27752   2.904   4.505   4.722  0.6518  0.0151 -0.2296
 8853SOL    HW127753   2.868   4.592   4.707  1.8006  0.8969  1.7434
 8853SOL    HW227754   2.876   4.483   4.811 -0.6538 -2.2080 -1.0875
 8854SOL     OW27755   2.976   0.284   1.330 -0.0047 -0.4657  0.0055
 8854SOL    HW127756   2.893   0.241   1.309 -1.1351  1.2139  0.7995
 8854SOL    HW227757   2.978   0.285   1.426  0.3108  0.6434 -0.0067
 8855SOL     OW27758   7.778   2.569   5.550 -0.1024 -0.3900  0.4399
 8855SOL    HW127759   7.827   2.648   5.573  0.4172 -0.3374 -0.7673
 8855SOL    HW227760   7.712   2.599   5.488  0.3537 -0.9567 -0.3319
 8856SOL     OW27761   1.288   7.295   2.055  0.3230  0.0359  0.1484
 8856SOL    HW127762   1.317   7.279   2.145 -1.1761 -1.1953  0.4612
 8856SOL    HW227763   1.340   7.234   2.002  2.7376  2.2024 -0.1831
 8857SOL     OW27764   7.592   2.671   8.098 -0.6622 -0.0897  0.3256
 8857SOL    HW127765   7.676   2.650   8.057 -1.3593 -2.8488  0.1460
 8857SOL    HW227766   7.527   2.631   8.041 -2.2470  2.8231 -0.0749
 8858SOL     OW27767   6.786   6.911   2.926  0.4263 -0.4285  0.0415
 8858SOL    HW127768   6.830   6.968   2.863  1.0523 -0.3234  0.5625
 8858SOL    HW227769   6.842   6.833   2.931 -0.0209 -0.7635 -0.0913
 8859SOL     OW27770   5.887   3.335   7.018 -0.0253  0.1403 -0.4348
 8859SOL    HW127771   5.795   3.355   7.002  0.1914  1.0569 -0.6306
 8859SOL    HW227772   5.920   3.412   7.065  0.8193  0.1551 -1.0298
 8860SOL     OW27773   4.742   2.717   4.203 -0.2785 -0.0757 -0.1962
 8860SOL    HW127774   4.750   2.803   4.245  0.2188 -0.3651  0.3156
 8860SOL    HW227775   4.819   2.669   4.232 -0.9136 -0.9386  0.0940
 8861SOL     OW27776   7.897   7.464   4.457 -0.1344  0.0531  0.1727
 8861SOL    HW127777   7.941   7.485   4.375 -0.0385  0.7526  0.3947
 8861SOL    HW227778   7.861   7.547   4.487  0.3953 -0.0589  1.1660
 8862SOL     OW27779   8.583   1.271   7.262  0.0584  0.4224 -0.3534
 8862SOL    HW127780   8.587   1.182   7.298  0.0752  0.2995 -0.6476
 8862SOL    HW227781   8.573   1.328   7.338 -1.6403  0.0455 -0.2672
 8863SOL     OW27782   0.004   3.013   3.786 -0.3280  0.4359  0.3814
 8863SOL    HW127783  -0.072   3.032   3.842 -0.4574  1.4369 -0.1145
 8863SOL    HW227784   0.016   3.092   3.734  0.4919 -0.0621 -0.2116
 8864SOL     OW27785   5.298   4.697   5.303 -0.2113  0.1238 -0.2098
 8864SOL    HW127786   5.269   4.771   5.357 -1.4604  0.6323 -1.5347
 8864SOL    HW227787   5.286   4.727   5.213 -0.3413 -1.5526 -0.7774
 8865SOL     OW27788   4.487   5.816   5.586  0.2291  0.2028 -0.2327
 8865SOL    HW127789   4.396   5.811   5.556  0.2625  3.2965 -1.2648
 8865SOL    HW227790   4.540   5.799   5.508  0.6716 -2.4393  0.5336
 8866SOL     OW27791   6.122   0.058   5.328  0.7731 -0.4607  0.0568
 8866SOL    HW127792   6.084   0.066   5.241  0.2536 -1.2789  0.2045
 8866SOL    HW227793   6.208   0.101   5.320  0.9845 -1.0511 -1.0185
 8867SOL     OW27794   6.953   0.503   5.757 -0.2660 -0.5818 -0.1822
 8867SOL    HW127795   7.004   0.516   5.677 -0.4669 -0.3981 -0.2828
 8867SOL    HW227796   6.906   0.421   5.743  1.3075 -1.6649  0.6158
 8868SOL     OW27797   8.278   5.034   5.831 -0.4901 -0.3007 -0.3402
 8868SOL    HW127798   8.225   5.057   5.907 -0.4691 -1.1969 -0.0328
 8868SOL    HW227799   8.358   5.084   5.841  0.4102 -1.9360  1.3826
 8869SOL     OW27800   5.246   5.234   4.238  0.7293  0.1017  0.0939
 8869SOL    HW127801   5.189   5.220   4.162  1.4096 -1.2312 -0.2175
 8869SOL    HW227802   5.310   5.298   4.208 -1.1203  2.3946  0.7720
 8870SOL     OW27803   1.012   4.335   4.650  0.2515 -0.0984  0.5666
 8870SOL    HW127804   1.080   4.358   4.714  1.6493  2.1825 -1.5361
 8870SOL    HW227805   1.059   4.326   4.567 -1.9013  0.8711 -0.8511
 8871SOL     OW27806   3.855   2.458   1.238  0.4980 -0.1590 -0.0544
 8871SOL    HW127807   3.787   2.391   1.227  1.4600 -0.8143 -2.4439
 8871SOL    HW227808   3.809   2.530   1.281 -1.6208 -0.7674 -1.1199
 8872SOL     OW27809   2.356   1.696   6.743 -0.4084  0.7246  0.1849
 8872SOL    HW127810   2.340   1.771   6.800 -3.2830  0.7605 -0.4768
 8872SOL    HW227811   2.392   1.734   6.663  0.0011  1.1546  0.5736
 8873SOL     OW27812   2.032   4.420   6.080 -0.0726  0.5678 -0.3041
 8873SOL    HW127813   2.101   4.369   6.038 -0.3772  0.4303 -0.6427
 8873SOL    HW227814   1.961   4.357   6.093  0.1857  0.4848  0.8493
 8874SOL     OW27815   2.026   2.259   6.443 -0.0229  0.0375 -0.9193
 8874SOL    HW127816   2.024   2.340   6.495 -1.4537 -1.0750  0.8886
 8874SOL    HW227817   1.991   2.285   6.358  2.5220  1.9535 -1.4918
 8875SOL     OW27818   3.080   8.028   1.595  0.3748 -0.2224  0.0936
 8875SOL    HW127819   3.025   8.089   1.545 -1.1821 -1.1122  0.6162
 8875SOL    HW227820   3.134   7.985   1.529 -0.9656 -0.6959 -0.7438
 8876SOL     OW27821   8.275   6.104   6.274 -0.1029 -0.1262 -0.0142
 8876SOL    HW127822   8.188   6.122   6.309  0.2105 -1.7067  1.7230
 8876SOL    HW227823   8.258   6.072   6.185 -1.1513  1.1220 -0.2959
 8877SOL     OW27824   6.771   8.386   5.049  0.0943  0.6108  0.0790
 8877SOL    HW127825   6.776   8.389   5.145  0.4325 -0.2600  0.1008
 8877SOL    HW227826   6.710   8.314   5.031  1.5189 -0.5541 -0.3541
 8878SOL     OW27827   4.484   8.243   2.127  0.6518  0.1035  0.1456
 8878SOL    HW127828   4.415   8.298   2.164  1.3161  0.8634  0.2802
 8878SOL    HW227829   4.442   8.158   2.114 -0.9592  1.0838 -1.8075
 8879SOL     OW27830   5.954   0.418   1.676  0.3681 -0.5028  0.1942
 8879SOL    HW127831   5.998   0.481   1.733 -1.5185 -0.4540  1.6972
 8879SOL    HW227832   5.885   0.380   1.731 -1.0512 -1.0365 -1.8368
 8880SOL     OW27833   6.260   8.255   0.868 -0.1760 -0.2283 -0.3760
 8880SOL    HW127834   6.342   8.230   0.910 -0.5728 -1.7503 -0.4631
 8880SOL    HW227835   6.265   8.350   0.860  1.2346 -0.2271  0.3233
 8881SOL     OW27836   6.886   6.936   4.447  0.1855 -0.0416  0.4252
 8881SOL    HW127837   6.889   6.951   4.352 -2.2467  0.2360  0.3151
 8881SOL    HW227838   6.963   6.980   4.481  0.6722  0.5671 -1.3608
 8882SOL     OW27839   4.027   4.760   4.933 -0.1297  0.6199 -0.3649
 8882SOL    HW127840   4.062   4.847   4.919  0.2579  0.3862 -0.8732
 8882SOL    HW227841   3.994   4.761   5.023  2.5603  0.3980  0.7068
 8883SOL     OW27842   3.526   1.554   4.467 -0.3600  0.0358  0.3803
 8883SOL    HW127843   3.472   1.548   4.388  0.4819 -1.2386 -0.1475
 8883SOL    HW227844   3.516   1.469   4.510  1.0934 -0.2094  0.3140
 8884SOL     OW27845   7.423   0.636   6.601 -0.5284 -0.3611 -0.3008
 8884SOL    HW127846   7.395   0.549   6.574  1.2593 -0.6964 -1.1808
 8884SOL    HW227847   7.437   0.629   6.695 -1.5483 -0.6717 -0.1594
 8885SOL     OW27848   3.754   1.987   8.090  0.6486 -0.2884  0.1297
 8885SOL    HW127849   3.727   1.990   8.181 -2.1817  0.3574 -0.6379
 8885SOL    HW227850   3.797   1.902   8.080 -1.5517 -1.6363  1.4385
 8886SOL     OW27851   8.577   1.403   8.580  0.1587  0.1472 -0.9329
 8886SOL    HW127852   8.671   1.419   8.578 -0.0417  1.5832 -0.2066
 8886SOL    HW227853   8.548   1.437   8.665 -0.9624 -0.6035 -0.9870
 8887SOL     OW27854   0.239   0.838   6.642 -0.3009 -1.3065 -0.5034
 8887SOL    HW127855   0.174   0.882   6.587 -0.3807 -0.9037 -0.0840
 8887SOL    HW227856   0.321   0.845   6.593  0.8113  3.3784  1.4897
 8888SOL     OW27857   2.499   5.086   3.593  0.5242 -0.0326  0.0770
 8888SOL    HW127858   2.445   5.163   3.574  0.4874 -0.1535 -0.3214
 8888SOL    HW227859   2.447   5.034   3.654  0.0223 -0.3230 -0.5751
 8889SOL     OW27860   6.898   2.249   5.583  0.7098 -0.1848  0.3076
 8889SOL    HW127861   6.829   2.193   5.620 -0.0774  1.7514  1.9456
 8889SOL    HW227862   6.965   2.187   5.554 -0.4970 -2.0276  1.2074
 8890SOL     OW27863   0.876   2.605   1.204 -0.1521  0.2091 -0.4852
 8890SOL    HW127864   0.800   2.657   1.229 -0.4174  0.2970 -1.4362
 8890SOL    HW227865   0.843   2.544   1.137  0.5409  0.0333 -0.6782
 8891SOL     OW27866   6.946   7.125   2.770 -0.2652 -0.2460  0.4688
 8891SOL    HW127867   6.864   7.166   2.797 -0.1693  0.1848  0.1179
 8891SOL    HW227868   6.966   7.165   2.685 -0.0724 -0.8764  0.2111
 8892SOL     OW27869   3.084   1.711   4.458 -0.7028 -0.0297  0.2793
 8892SOL    HW127870   3.060   1.798   4.425 -2.6593 -0.2425  1.0280
 8892SOL    HW227871   3.085   1.721   4.553  0.4543 -0.5039  0.3295
 8893SOL     OW27872   4.341   6.048   6.103  0.0423  0.1592  0.2778
 8893SOL    HW127873   4.267   6.052   6.162  0.3620 -0.8886  0.7804
 8893SOL    HW227874   4.412   6.093   6.149 -0.4468  1.8673 -0.5295
 8894SOL     OW27875   1.942   7.501   0.648  0.5660  0.2926 -0.2490
 8894SOL    HW127876   1.938   7.405   0.647  0.4336  0.2448  1.5890
 8894SOL    HW227877   1.899   7.527   0.566 -1.6547 -1.1834  0.3392
 8895SOL     OW27878   7.828   5.399   6.015  0.2564 -0.5437  0.3322
 8895SOL    HW127879   7.894   5.452   5.969  0.3908  0.1986  1.3549
 8895SOL    HW227880   7.875   5.321   6.043  0.4558 -0.4731  0.1958
 8896SOL     OW27881   5.723   7.711   3.246 -0.4491  0.0641 -0.3758
 8896SOL    HW127882   5.807   7.673   3.219 -0.7089 -0.9282  0.1656
 8896SOL    HW227883   5.685   7.745   3.165  0.2083 -0.0027 -0.7197
 8897SOL     OW27884   3.495   5.490   5.568 -0.0752 -0.0974  0.3045
 8897SOL    HW127885   3.412   5.481   5.520 -1.4218  2.5617  1.9165
 8897SOL    HW227886   3.520   5.581   5.556  2.2200 -0.6209  0.5887
 8898SOL     OW27887   3.334   7.036   3.154 -0.2537  0.6772  0.2604
 8898SOL    HW127888   3.378   7.027   3.239 -0.3467  1.0654  0.3507
 8898SOL    HW227889   3.279   7.114   3.164 -0.5613  0.4995 -0.0256
 8899SOL     OW27890   3.020   1.924   6.427  0.0136 -0.2439  0.6728
 8899SOL    HW127891   2.988   1.844   6.386 -1.3919  0.3206  0.6226
 8899SOL    HW227892   3.091   1.953   6.369 -1.0059 -0.2194 -0.6271
 8900SOL     OW27893   8.116   4.042   3.042  0.2054 -0.2803 -0.3416
 8900SOL    HW127894   8.210   4.049   3.063  0.6190 -0.8582 -1.8309
 8900SOL    HW227895   8.099   3.948   3.045 -0.6915 -0.0925  1.2748
 8901SOL     OW27896   1.310   5.710   1.773  0.6046 -0.1393  0.2479
 8901SOL    HW127897   1.339   5.785   1.824  1.9361  0.2278 -1.0015
 8901SOL    HW227898   1.218   5.698   1.799  0.5454  1.5102  0.9233
 8902SOL     OW27899   6.458   0.510   3.480  0.6700  0.5098  0.6383
 8902SOL    HW127900   6.412   0.477   3.557  1.7520  1.3344  1.6768
 8902SOL    HW227901   6.397   0.573   3.441  0.5185  0.8520  1.4119
 8903SOL     OW27902   6.617   3.394   3.552  0.0704 -0.0282  0.2813
 8903SOL    HW127903   6.698   3.433   3.518 -0.8424  0.2228 -1.7134
 8903SOL    HW227904   6.547   3.442   3.508 -1.2111 -0.1788  2.0321
 8904SOL     OW27905   0.183   2.555   6.013 -0.4561 -0.3907 -0.3511
 8904SOL    HW127906   0.211   2.646   6.007  0.7175 -0.7196 -0.0029
 8904SOL    HW227907   0.155   2.543   6.104 -1.8634 -0.0534 -0.7029
 8905SOL     OW27908   7.630   2.907   4.985  0.3767  0.8565  0.5353
 8905SOL    HW127909   7.702   2.865   4.939 -1.7198 -1.7304 -0.6042
 8905SOL    HW227910   7.638   3.000   4.962  3.3991  0.7271  0.6589
 8906SOL     OW27911   4.204   5.648   3.635 -0.1099  0.2835  0.1980
 8906SOL    HW127912   4.155   5.667   3.555 -0.9734  1.2484  0.9313
 8906SOL    HW227913   4.263   5.723   3.646  0.1534  0.0564  0.3583
 8907SOL     OW27914   6.975   6.651   7.849 -0.3434  0.6490 -0.5947
 8907SOL    HW127915   6.958   6.719   7.783 -0.9422  0.7534 -0.3299
 8907SOL    HW227916   6.926   6.575   7.818 -2.4281  1.3305  0.8337
 8908SOL     OW27917   7.758   2.549   6.456  0.1698 -0.8037 -0.4234
 8908SOL    HW127918   7.684   2.574   6.512  0.2030 -1.5550 -0.0259
 8908SOL    HW227919   7.739   2.589   6.372 -0.8301 -1.1837 -0.3969
 8909SOL     OW27920   8.258   2.191   3.063 -0.5227  0.0732 -0.6738
 8909SOL    HW127921   8.343   2.170   3.025 -0.1566 -0.0141  0.1790
 8909SOL    HW227922   8.271   2.185   3.158 -1.4972 -0.0373 -0.5295
 8910SOL     OW27923   2.833   6.537   8.219 -0.0572  0.1021  0.1373
 8910SOL    HW127924   2.923   6.532   8.251  0.7312  0.0131 -1.9065
 8910SOL    HW227925   2.827   6.464   8.156 -1.5610  0.1142  0.2435
 8911SOL     OW27926   4.919   0.998   2.960  0.3167  0.3963 -0.3392
 8911SOL    HW127927   4.874   1.022   3.041  0.3502 -0.6163 -0.0078
 8911SOL    HW227928   4.850   0.994   2.894  0.1358  0.2223 -0.1376
 8912SOL     OW27929   4.389   6.679   5.574  0.4665 -0.0348  0.1192
 8912SOL    HW127930   4.468   6.707   5.620 -0.6008  0.5905  1.6342
 8912SOL    HW227931   4.362   6.755   5.523  0.0720  0.2384  0.7194
 8913SOL     OW27932   2.182   8.338   0.027 -0.3548 -0.0357 -0.2783
 8913SOL    HW127933   2.192   8.244   0.043 -0.4342  0.4617  3.3518
 8913SOL    HW227934   2.258   8.378   0.068 -1.7923  1.6478  0.8940
 8914SOL     OW27935   0.554   2.991   4.807 -0.3359  0.0660 -0.6289
 8914SOL    HW127936   0.618   3.058   4.831 -1.1984  0.5575  0.4002
 8914SOL    HW227937   0.506   3.029   4.734 -0.6493  0.4772 -0.2164
 8915SOL     OW27938   2.057   1.435   2.468 -0.5006 -0.2423  0.0292
 8915SOL    HW127939   2.017   1.490   2.401 -0.6106 -0.5387 -0.1546
 8915SOL    HW227940   2.146   1.419   2.437 -0.6424 -0.6197 -0.2002
 8916SOL     OW27941   5.475   8.132   1.829 -0.3252 -0.2970  0.3196
 8916SOL    HW127942   5.496   8.107   1.919  0.7657  0.8454  0.4155
 8916SOL    HW227943   5.421   8.211   1.838  0.9848  0.6826  0.0042
 8917SOL     OW27944   8.438   4.899   2.767 -0.5628  0.0788 -0.0118
 8917SOL    HW127945   8.402   4.986   2.749 -0.8893  0.0454  0.4544
 8917SOL    HW227946   8.383   4.839   2.715 -0.3144  0.1510 -0.3610
 8918SOL     OW27947   5.161   5.889   1.656  0.4287 -0.0775  0.0827
 8918SOL    HW127948   5.137   5.965   1.602  0.2166 -0.5517 -0.4970
 8918SOL    HW227949   5.244   5.859   1.621 -0.2364 -1.0581 -0.7246
 8919SOL     OW27950   0.333   7.817   4.781  0.3607  0.6227  0.5538
 8919SOL    HW127951   0.427   7.806   4.801  0.4030  0.0579  0.0396
 8919SOL    HW227952   0.314   7.907   4.809  1.2367  1.0033 -0.0360
 8920SOL     OW27953   8.252   0.231   4.396 -0.0410 -0.2357 -0.0141
 8920SOL    HW127954   8.327   0.188   4.437 -0.2129  0.0609  0.6183
 8920SOL    HW227955   8.277   0.241   4.304  0.9498  0.4122  0.3112
 8921SOL     OW27956   7.464   8.532   5.181 -0.5732  0.2694 -0.8565
 8921SOL    HW127957   7.467   8.605   5.120  1.7613  1.5481  0.6654
 8921SOL    HW227958   7.442   8.456   5.127 -0.5467  1.6620 -2.9087
 8922SOL     OW27959   2.802   0.392   6.915 -0.0673  0.0490  0.0608
 8922SOL    HW127960   2.747   0.469   6.926  1.0770  1.1310 -1.4701
 8922SOL    HW227961   2.759   0.341   6.847 -0.0063  0.1000 -0.0154
 8923SOL     OW27962   0.377   6.350   4.534 -0.1614 -0.0208  0.2626
 8923SOL    HW127963   0.305   6.367   4.473  0.4279  0.3921 -0.3163
 8923SOL    HW227964   0.354   6.265   4.573 -1.3524  0.4544  0.6506
 8924SOL     OW27965   6.833   6.124   7.575  0.3072  0.1025  0.3012
 8924SOL    HW127966   6.768   6.149   7.641  0.0962 -1.4370  0.7018
 8924SOL    HW227967   6.897   6.196   7.576 -1.1877  1.5004  0.1131
 8925SOL     OW27968   6.255   3.467   0.255 -0.0360 -0.1569 -0.8802
 8925SOL    HW127969   6.325   3.467   0.320 -0.9493  1.4529  0.1731
 8925SOL    HW227970   6.287   3.410   0.185  1.5272 -0.9049  0.3780
 8926SOL     OW27971   0.324   7.934   3.881 -0.0185 -0.6094  0.3981
 8926SOL    HW127972   0.337   7.886   3.963  0.9740 -1.3127 -0.1424
 8926SOL    HW227973   0.394   7.999   3.881 -3.3527  3.4530  2.8101
 8927SOL     OW27974   4.704   2.227   3.613  0.4014 -0.3544 -0.4764
 8927SOL    HW127975   4.754   2.304   3.587  0.4117 -0.2008 -0.0086
 8927SOL    HW227976   4.619   2.237   3.571  0.2089  0.1936  0.0310
 8928SOL     OW27977   2.149   7.127   2.866 -0.0611  0.5231 -0.2501
 8928SOL    HW127978   2.130   7.193   2.800 -1.6983 -0.3819 -0.7409
 8928SOL    HW227979   2.138   7.043   2.820  0.8853 -0.1217  0.6366
 8929SOL     OW27980   6.805   3.764   1.198 -0.3608 -0.0952 -0.6251
 8929SOL    HW127981   6.786   3.725   1.283  0.6934  0.3263 -0.1801
 8929SOL    HW227982   6.720   3.774   1.156 -0.8376 -0.8266  0.1503
 8930SOL     OW27983   0.666   2.913   8.354  0.4183 -0.3358  0.3066
 8930SOL    HW127984   0.712   2.916   8.270 -0.8168  0.8800 -0.3658
 8930SOL    HW227985   0.603   2.985   8.349 -0.5406 -1.0343  1.7793
 8931SOL     OW27986   6.078   1.846   4.817  0.6644  0.3848  0.0374
 8931SOL    HW127987   6.035   1.914   4.765  1.7278 -0.4209 -2.0225
 8931SOL    HW227988   6.008   1.788   4.845  0.1696  0.2108 -1.5100
 8932SOL     OW27989   2.510   2.691   1.363 -0.6306  0.3598 -0.5246
 8932SOL    HW127990   2.512   2.715   1.271 -0.7904 -2.1133 -1.2412
 8932SOL    HW227991   2.423   2.718   1.393 -0.9714  0.2319 -1.3751
 8933SOL     OW27992   1.363   7.978   4.340 -0.3042  0.2559  0.1773
 8933SOL    HW127993   1.291   7.964   4.402 -0.3962  0.0049  0.0152
 8933SOL    HW227994   1.320   8.014   4.262 -0.7241 -2.6226 -1.0561
 8934SOL     OW27995   7.363   2.551   4.484  0.4796 -0.2986 -0.0082
 8934SOL    HW127996   7.449   2.516   4.504  1.1795  0.8138 -0.9465
 8934SOL    HW227997   7.357   2.548   4.389  0.5106  1.8715 -0.1433
 8935SOL     OW27998   6.740   7.400   6.140  0.0562 -0.0752 -0.6998
 8935SOL    HW127999   6.665   7.433   6.191  0.1067 -0.9725 -0.0145
 8935SOL    HW228000   6.816   7.446   6.177  0.3371 -2.0113  1.3457
 8936SOL     OW28001   2.883   7.333   4.176 -0.1294 -0.5708  0.3154
 8936SOL    HW128002   2.928   7.299   4.099 -1.0809  1.0023 -0.9880
 8936SOL    HW228003   2.941   7.402   4.209 -1.5393  1.6371 -1.5162
 8937SOL     OW28004   5.961   8.359   1.930 -0.2178 -0.0209  0.4365
 8937SOL    HW128005   5.881   8.345   1.879 -2.2061  0.8776  3.0939
 8937SOL    HW228006   5.961   8.289   1.995  1.5813 -0.3956  0.0937
 8938SOL     OW28007   2.731   2.871   3.585 -0.5318  0.3726 -0.0144
 8938SOL    HW128008   2.640   2.880   3.557  0.0745  1.4688 -1.7971
 8938SOL    HW228009   2.726   2.866   3.681 -2.4378  0.6120 -0.0539
 8939SOL     OW28010   4.628   4.808   2.719 -0.0907  0.3716  0.1407
 8939SOL    HW128011   4.556   4.868   2.742 -1.3180 -1.6076  1.8017
 8939SOL    HW228012   4.594   4.759   2.644 -0.3705 -0.3253  0.7101
 8940SOL     OW28013   8.305   6.807   8.555 -0.5991  0.1186 -0.1887
 8940SOL    HW128014   8.324   6.733   8.498 -2.5081 -1.2300  0.8198
 8940SOL    HW228015   8.385   6.818   8.607  0.1788 -0.3710 -1.2466
 8941SOL     OW28016   5.645   5.694   0.526  0.2192 -1.0355 -0.6443
 8941SOL    HW128017   5.588   5.708   0.602  0.2400 -0.8724 -0.6593
 8941SOL    HW228018   5.584   5.683   0.453  0.2169 -0.4958 -0.7226
 8942SOL     OW28019   3.963   5.859   2.561  0.4162 -0.3738 -0.5617
 8942SOL    HW128020   3.933   5.939   2.605  0.4127 -0.3514 -0.6052
 8942SOL    HW228021   3.963   5.881   2.468  1.0910 -0.2002 -0.5256
 8943SOL     OW28022   0.445   7.422   7.783 -0.1443  0.3581 -0.4016
 8943SOL    HW128023   0.463   7.446   7.874 -0.0199  0.5292 -0.4699
 8943SOL    HW228024   0.352   7.441   7.771  0.0792  1.3778 -0.6247
 8944SOL     OW28025   6.769   0.807   3.284  0.5327  0.3678  0.3358
 8944SOL    HW128026   6.862   0.792   3.301  0.9019  1.1076 -0.9250
 8944SOL    HW228027   6.755   0.899   3.306 -0.2350 -0.0728  1.8189
 8945SOL     OW28028   4.202   3.853   8.001 -0.3951  0.5936  0.0938
 8945SOL    HW128029   4.168   3.768   8.027 -0.4093 -0.3299 -2.5786
 8945SOL    HW228030   4.297   3.840   7.993 -0.4505  0.6544 -0.7966
 8946SOL     OW28031   0.266   1.149   7.921  0.0584 -0.0856 -0.2736
 8946SOL    HW128032   0.221   1.100   7.853 -0.6606 -0.0442  0.1533
 8946SOL    HW228033   0.269   1.239   7.888 -1.1429  0.1256  0.1409
 8947SOL     OW28034   7.981   7.705   6.689  0.3320 -0.1291 -0.6920
 8947SOL    HW128035   7.935   7.634   6.731 -1.1120  0.8212 -0.5998
 8947SOL    HW228036   7.990   7.772   6.756  2.4197 -0.4877 -0.5294
 8948SOL     OW28037   3.868   0.287   4.331  0.1995 -0.1222  0.3466
 8948SOL    HW128038   3.857   0.279   4.237  0.9900 -1.7961  0.3659
 8948SOL    HW228039   3.805   0.225   4.368  0.1802  0.2238  0.9100
 8949SOL     OW28040   8.087   3.220   1.883  0.4884 -0.7213 -0.3705
 8949SOL    HW128041   7.997   3.189   1.869 -0.2095  0.7183  0.6636
 8949SOL    HW228042   8.091   3.301   1.832  0.0447  1.0553  2.2573
 8950SOL     OW28043   0.208   6.665   5.284  0.2400  0.2367 -0.0926
 8950SOL    HW128044   0.137   6.690   5.225 -0.0851 -0.8129 -0.1745
 8950SOL    HW228045   0.226   6.574   5.261  0.7485  0.1092  0.7979
 8951SOL     OW28046   1.938   7.151   8.158 -0.0950 -0.3425  0.2145
 8951SOL    HW128047   1.958   7.095   8.233  0.0771 -0.0985  0.3557
 8951SOL    HW228048   2.019   7.151   8.107 -0.0227 -0.0606  0.3245
 8952SOL     OW28049   8.501   1.742   4.907  0.7201  0.1578  0.4143
 8952SOL    HW128050   8.574   1.680   4.912  0.8304  0.3612  2.4240
 8952SOL    HW228051   8.543   1.828   4.909  0.5300  0.3171 -1.4845
 8953SOL     OW28052   7.469   3.896   5.393  0.4075 -0.0744 -0.1058
 8953SOL    HW128053   7.499   3.953   5.322 -0.5124  0.1981 -0.2892
 8953SOL    HW228054   7.401   3.946   5.437 -0.1731 -0.8844 -0.0524
 8954SOL     OW28055   6.454   2.932   2.885 -0.3256 -0.3463 -0.4699
 8954SOL    HW128056   6.370   2.916   2.841 -0.8079 -0.8595  0.5993
 8954SOL    HW228057   6.448   3.023   2.916 -1.0635 -0.7923  0.7703
 8955SOL     OW28058   0.854   4.509   5.005  0.1074  0.4566 -0.2446
 8955SOL    HW128059   0.771   4.525   5.050 -0.0547 -0.4031 -0.2377
 8955SOL    HW228060   0.892   4.597   4.996  0.2678  0.6463  1.7600
 8956SOL     OW28061   4.039   0.631   0.175  0.1390 -0.6377  0.8393
 8956SOL    HW128062   4.112   0.657   0.119  0.0230 -1.8516  0.0951
 8956SOL    HW228063   4.080   0.602   0.256  0.3318  0.7748  1.2718
 8957SOL     OW28064   3.342   0.026   1.875  0.1976  0.1259  0.2791
 8957SOL    HW128065   3.352   0.028   1.970 -3.2545 -0.7380  0.7846
 8957SOL    HW228066   3.356   0.117   1.848  0.7531  0.4750  1.6476
 8958SOL     OW28067   3.658   5.179   8.410 -0.4191  0.0149  0.1426
 8958SOL    HW128068   3.674   5.179   8.504 -1.0302  1.2739  0.2610
 8958SOL    HW228069   3.586   5.117   8.398 -0.5485  0.0866  0.5430
 8959SOL     OW28070   0.734   0.101   0.532  0.1390  0.0020 -0.3787
 8959SOL    HW128071   0.649   0.140   0.512 -0.5116 -1.2200 -0.0732
 8959SOL    HW228072   0.798   0.169   0.510 -0.9698  1.3242  0.3991
 8960SOL     OW28073   5.997   6.642   2.666 -0.1003 -0.4102  0.9253
 8960SOL    HW128074   6.041   6.726   2.681 -0.8042 -0.0345  0.9460
 8960SOL    HW228075   5.906   6.658   2.691 -0.3385 -1.0522  0.5019
 8961SOL     OW28076   6.077   2.751   0.679 -0.3976 -0.1063  0.1527
 8961SOL    HW128077   6.029   2.771   0.759 -1.0455 -1.6074  0.1673
 8961SOL    HW228078   6.163   2.791   0.692 -0.2811 -0.8309  1.8654
 8962SOL     OW28079   0.624   1.180   3.757 -0.2105  0.0971 -0.1629
 8962SOL    HW128080   0.651   1.096   3.720  0.0247  0.1263 -0.0589
 8962SOL    HW228081   0.632   1.242   3.685  0.1458  0.1338 -0.0935
 8963SOL     OW28082   0.973   7.362   8.327  0.3657  0.2835 -0.0646
 8963SOL    HW128083   0.980   7.310   8.407 -0.1506  0.4346  0.0784
 8963SOL    HW228084   1.006   7.304   8.258 -1.2334 -0.6481 -0.0805
 8964SOL     OW28085   6.591   3.481   6.337  0.5109  0.0918  0.3208
 8964SOL    HW128086   6.591   3.562   6.387  0.6284 -0.3930  1.1263
 8964SOL    HW228087   6.649   3.498   6.263  0.6787  0.6800  0.5854
 8965SOL     OW28088   0.632   3.223   0.432 -0.1370 -0.5157 -0.0020
 8965SOL    HW128089   0.540   3.219   0.458 -0.3168 -1.5483 -0.7303
 8965SOL    HW228090   0.660   3.131   0.430  0.7637 -0.2420 -0.3036
 8966SOL     OW28091   2.276   6.145   5.084 -0.0302  0.3709 -0.0564
 8966SOL    HW128092   2.340   6.213   5.065  0.9727 -0.4199  0.3717
 8966SOL    HW228093   2.203   6.162   5.024  1.2902  0.3355 -1.7264
 8967SOL     OW28094   6.460   3.095   7.391 -0.0168 -0.0212  0.2734
 8967SOL    HW128095   6.551   3.092   7.364 -0.4140 -0.4827 -1.0655
 8967SOL    HW228096   6.433   3.186   7.378  0.6179  0.4590  2.0226
 8968SOL     OW28097   1.350   5.899   2.858 -0.0502  0.4344 -0.7979
 8968SOL    HW128098   1.367   5.950   2.937 -0.8145  1.3411 -1.1908
 8968SOL    HW228099   1.269   5.936   2.823  0.5191  0.3683 -2.2577
 8969SOL     OW28100   0.197   2.084   1.698  0.6191  0.6565  0.1227
 8969SOL    HW128101   0.161   2.172   1.683 -0.0590  0.8091  2.3997
 8969SOL    HW228102   0.172   2.062   1.787  1.7784 -1.4028 -0.0002
 8970SOL     OW28103   6.921   2.802   6.515 -0.2821 -0.3965  0.2842
 8970SOL    HW128104   6.992   2.740   6.499 -0.6041 -0.6517 -0.1698
 8970SOL    HW228105   6.847   2.769   6.464  0.0790  1.3401 -1.5090
 8971SOL     OW28106   3.426   6.191   6.566  1.1640  0.9424 -0.1158
 8971SOL    HW128107   3.334   6.208   6.586  1.1946  0.6839  0.2469
 8971SOL    HW228108   3.475   6.248   6.625  1.2393  2.0121 -1.1520
 8972SOL     OW28109   6.365   0.434   4.636  0.0644 -0.4257  0.1076
 8972SOL    HW128110   6.362   0.366   4.570  0.4383 -0.9094  0.5861
 8972SOL    HW228111   6.438   0.490   4.610 -0.3732 -0.0759 -0.4005
 8973SOL     OW28112   7.653   2.612   2.898 -0.8337  0.4736 -0.0470
 8973SOL    HW128113   7.646   2.707   2.907 -0.9058  0.6594 -1.6945
 8973SOL    HW228114   7.614   2.578   2.978 -0.0284  1.8342  0.9692
 8974SOL     OW28115   1.612   2.786   6.932  0.5477 -0.8807  0.0428
 8974SOL    HW128116   1.517   2.788   6.938  0.5758  0.2617  0.1904
 8974SOL    HW228117   1.634   2.854   6.868  1.3786  0.3990  1.6200
 8975SOL     OW28118   2.380   8.204   1.607 -0.1571 -0.4487  0.6671
 8975SOL    HW128119   2.307   8.182   1.665 -1.7154 -0.3672 -1.1654
 8975SOL    HW228120   2.411   8.119   1.575  0.4116 -0.4657  1.2323
 8976SOL     OW28121   0.395   0.285   4.525  0.3005  0.5345 -0.1860
 8976SOL    HW128122   0.440   0.348   4.468  0.0419  0.9374  0.0476
 8976SOL    HW228123   0.303   0.291   4.499  0.0566  1.2960  0.7969
 8977SOL     OW28124   0.374   6.797   8.203  0.0103  0.3758  0.3322
 8977SOL    HW128125   0.449   6.768   8.255 -1.3140 -1.2870  1.4383
 8977SOL    HW228126   0.398   6.774   8.113  0.1231 -1.9469  0.8714
 8978SOL     OW28127   5.680   2.793   5.809  0.1034  0.2542  0.7248
 8978SOL    HW128128   5.684   2.809   5.904 -0.7408  2.3065  0.4750
 8978SOL    HW228129   5.643   2.706   5.801  0.4382 -0.0603  2.2881
 8979SOL     OW28130   6.177   4.406   4.022 -0.4260 -0.0853 -0.0331
 8979SOL    HW128131   6.120   4.480   4.042  1.2829  1.0822  0.7647
 8979SOL    HW228132   6.146   4.375   3.937 -3.2678 -0.5734  1.0688
 8980SOL     OW28133   2.100   5.555   7.901  0.2849  0.3582 -0.5348
 8980SOL    HW128134   2.162   5.502   7.851  1.5049  2.2177 -1.0878
 8980SOL    HW228135   2.155   5.603   7.963 -0.6108  1.8439 -0.8486
 8981SOL     OW28136   4.315   5.123   3.265 -0.2112 -0.3040 -0.3405
 8981SOL    HW128137   4.282   5.156   3.349 -0.2702  0.3908 -0.6255
 8981SOL    HW228138   4.390   5.068   3.288 -0.0720  0.0853  0.1525
 8982SOL     OW28139   7.611   1.791   3.215 -0.6767  0.2288  0.3817
 8982SOL    HW128140   7.664   1.870   3.223  0.4405 -0.4553 -0.0206
 8982SOL    HW228141   7.583   1.790   3.123  1.2875 -1.0235 -0.2608
 8983SOL     OW28142   6.615   8.387   1.316  0.2000  0.2246 -0.1597
 8983SOL    HW128143   6.659   8.443   1.380  0.6210 -0.3393  0.0502
 8983SOL    HW228144   6.524   8.385   1.344 -0.8506  4.2789 -2.5674
 8984SOL     OW28145   4.652   0.060   1.040  0.0749  0.1905 -0.6097
 8984SOL    HW128146   4.663   0.152   1.016 -1.1556  1.0515  1.7891
 8984SOL    HW228147   4.557   0.044   1.032  0.1116 -0.4965  0.1571
 8985SOL     OW28148   8.470   6.955   7.497 -0.0660 -0.4192  0.6090
 8985SOL    HW128149   8.397   6.923   7.551 -0.2222  2.0845  2.0008
 8985SOL    HW228150   8.537   6.980   7.559  0.5959  0.6041 -0.4756
 8986SOL     OW28151   1.404   2.108   4.680 -0.2000 -0.3898 -0.0266
 8986SOL    HW128152   1.497   2.097   4.662  0.1518 -1.2612  2.1091
 8986SOL    HW228153   1.362   2.097   4.594  1.5476 -1.2745 -0.8163
 8987SOL     OW28154   3.540   8.585   8.600 -0.3169 -0.4644  0.2879
 8987SOL    HW128155   3.529   8.518   8.532 -1.4862 -0.1143  0.1029
 8987SOL    HW228156   3.500   8.663   8.562  1.3368  0.4614  0.3569
 8988SOL     OW28157   3.200   5.670   0.879  0.1858  0.4981 -0.0002
 8988SOL    HW128158   3.199   5.678   0.784 -0.6747 -0.1984 -0.0544
 8988SOL    HW228159   3.124   5.617   0.900  0.6868  0.1610  1.0377
 8989SOL     OW28160   0.284   0.786   0.157  1.0701 -0.3895 -0.4315
 8989SOL    HW128161   0.367   0.822   0.126  1.8395  0.5503  2.4098
 8989SOL    HW228162   0.309   0.719   0.220  0.0253  2.8484  3.9296
 8990SOL     OW28163   4.198   7.052   2.514  0.0379 -0.3770  0.1558
 8990SOL    HW128164   4.185   7.097   2.598 -2.4602  2.5045 -1.5946
 8990SOL    HW228165   4.144   6.973   2.522  0.5970 -0.6613  1.5503
 8991SOL     OW28166   5.192   4.617   8.310 -0.5330 -0.1560 -0.0992
 8991SOL    HW128167   5.288   4.616   8.316 -0.5730 -1.0165  0.6332
 8991SOL    HW228168   5.170   4.540   8.259 -0.9061 -1.0857  1.4063
 8992SOL     OW28169   1.250   4.923   1.329  0.0229  0.0559  0.4848
 8992SOL    HW128170   1.240   4.849   1.388 -0.5878 -0.5494 -0.3472
 8992SOL    HW228171   1.172   4.919   1.273  0.6058  0.5782 -0.3828
 8993SOL     OW28172   4.312   2.895   6.342 -0.1457 -0.4286  0.5766
 8993SOL    HW128173   4.298   2.989   6.355 -0.9190 -0.5513  0.6789
 8993SOL    HW228174   4.224   2.857   6.343  0.1841 -1.2053  0.9026
 8994SOL     OW28175   8.390   2.556   5.989  0.1155 -0.2014  0.3077
 8994SOL    HW128176   8.353   2.590   5.908  0.2794  0.0128  0.3214
 8994SOL    HW228177   8.316   2.554   6.050 -0.1249 -0.8635  0.0006
 8995SOL     OW28178   3.381   2.507   5.882  0.3187 -0.6679 -0.4857
 8995SOL    HW128179   3.446   2.544   5.942 -1.4349  1.3491  0.2844
 8995SOL    HW228180   3.430   2.494   5.800  1.5032  1.7833 -0.2638
 8996SOL     OW28181   5.822   1.855   4.572 -0.4932 -0.1927 -0.0775
 8996SOL    HW128182   5.907   1.872   4.532 -0.2688 -2.5494 -0.7514
 8996SOL    HW228183   5.836   1.777   4.627 -2.5495 -1.8046 -1.6461
 8997SOL     OW28184   7.320   0.931   0.818  0.0562 -0.0047 -0.3206
 8997SOL    HW128185   7.362   0.968   0.895  0.4224 -0.6391 -0.2074
 8997SOL    HW228186   7.295   1.006   0.765  1.9921  0.3861 -0.7467
 8998SOL     OW28187   1.260   8.070   6.924  0.3327  0.2414  0.3970
 8998SOL    HW128188   1.339   8.023   6.952  1.0246  0.6986 -0.7482
 8998SOL    HW228189   1.288   8.123   6.850 -1.2454 -0.2473 -0.5915
 8999SOL     OW28190   5.691   2.991   2.203 -0.1169  0.0239 -0.6278
 8999SOL    HW128191   5.737   3.072   2.225 -0.6865  0.4018 -0.8081
 8999SOL    HW228192   5.599   3.011   2.218 -0.1776 -0.9448  0.4099
 9000SOL     OW28193   0.031   6.199   7.602 -0.4875 -0.2097  0.3595
 9000SOL    HW128194  -0.052   6.211   7.557  0.3041 -2.2051 -1.8925
 9000SOL    HW228195   0.045   6.104   7.600  0.7464 -0.1522  2.8339
 9001SOL     OW28196   6.378   2.398   7.511 -0.6292 -0.3804 -0.0953
 9001SOL    HW128197   6.418   2.312   7.509 -1.5112 -0.8496  1.0511
 9001SOL    HW228198   6.375   2.426   7.420  1.4534 -0.6819 -0.2994
 9002SOL     OW28199   4.243   7.833   4.448  0.1529  0.0363  0.0572
 9002SOL    HW128200   4.286   7.887   4.381  0.4218  0.2252  0.3782
 9002SOL    HW228201   4.153   7.867   4.452  0.7334  1.5460  1.3700
 9003SOL     OW28202   1.708   4.144   0.068  0.3906 -0.0966  0.2515
 9003SOL    HW128203   1.639   4.206   0.047 -1.6669 -2.7436 -1.6008
 9003SOL    HW228204   1.766   4.146  -0.008  0.5263 -0.1708  0.3531
 9004SOL     OW28205   1.784   5.107   6.339  0.1875 -0.6362 -0.7011
 9004SOL    HW128206   1.705   5.055   6.323 -0.8444  0.5954  0.1657
 9004SOL    HW228207   1.752   5.186   6.381  2.0397 -0.7221  1.0128
 9005SOL     OW28208   5.702   2.163   4.767 -0.2699  0.3377 -0.3963
 9005SOL    HW128209   5.741   2.187   4.684  1.1362 -0.5861 -0.0383
 9005SOL    HW228210   5.639   2.094   4.746  1.0807 -0.8761 -0.5612
 9006SOL     OW28211   3.613   2.279   8.347  0.6909 -0.4994 -0.0154
 9006SOL    HW128212   3.625   2.340   8.274 -1.1985 -0.4547 -0.3577
 9006SOL    HW228213   3.520   2.286   8.368  1.0445 -1.0632  1.9357
 9007SOL     OW28214   5.176   5.132   2.272  0.2557  0.9432 -0.1367
 9007SOL    HW128215   5.122   5.101   2.344  0.5847 -2.1166 -1.0644
 9007SOL    HW228216   5.114   5.154   2.202  0.0587 -1.1803 -0.6958
 9008SOL     OW28217   2.582   3.326   7.806 -0.3984 -0.1395  0.6354
 9008SOL    HW128218   2.649   3.343   7.741 -1.2420  0.3871 -0.1242
 9008SOL    HW228219   2.622   3.352   7.889 -0.0426  1.2511  0.0625
 9009SOL     OW28220   7.993   2.369   2.021  0.2770  0.2003  0.3748
 9009SOL    HW128221   8.081   2.406   2.026  0.0782  0.5871  1.1413
 9009SOL    HW228222   7.970   2.350   2.112 -0.8636  1.1421  0.3035
 9010SOL     OW28223   3.718   8.093   1.497 -0.0781 -0.4802  0.2795
 9010SOL    HW128224   3.783   8.157   1.467 -0.0737 -0.1368  0.9888
 9010SOL    HW228225   3.686   8.051   1.417 -0.8025  1.0943 -0.3010
 9011SOL     OW28226   0.906   0.090   7.524 -0.6491  0.5124  0.2776
 9011SOL    HW128227   0.883   0.001   7.552  0.5735  0.3534  0.8769
 9011SOL    HW228228   1.001   0.086   7.510 -0.9757  0.9697 -2.6072
 9012SOL     OW28229   3.466   1.816   4.265 -0.2007 -0.2381  0.3863
 9012SOL    HW128230   3.411   1.894   4.262  0.1574 -0.0039 -1.5601
 9012SOL    HW228231   3.406   1.745   4.284 -1.0709  0.1333 -0.8183
 9013SOL     OW28232   4.548   7.078   0.446 -0.0514 -0.1131  0.1581
 9013SOL    HW128233   4.574   6.988   0.466 -2.3928 -0.7618  0.5519
 9013SOL    HW228234   4.589   7.131   0.514  0.6190 -0.9789  0.4470
 9014SOL     OW28235   7.710   7.314   0.403  0.2255 -0.3567 -0.0397
 9014SOL    HW128236   7.715   7.409   0.401 -0.8560 -0.2107  1.8368
 9014SOL    HW228237   7.617   7.294   0.408  0.4804 -1.2995  3.3135
 9015SOL     OW28238   6.726   4.010   3.819 -0.0547 -0.0877  0.1917
 9015SOL    HW128239   6.639   3.979   3.844 -0.2724  1.0636  0.9306
 9015SOL    HW228240   6.715   4.103   3.801  0.8634 -0.1025 -0.5583
 9016SOL     OW28241   3.737   0.071   6.333  0.7300 -0.0398  0.2593
 9016SOL    HW128242   3.719  -0.023   6.335  1.2260 -0.1420 -0.0026
 9016SOL    HW228243   3.776   0.086   6.247  0.0578  0.5174  0.0451
 9017SOL     OW28244   6.561   5.140   6.774  0.4480 -0.0180 -0.2995
 9017SOL    HW128245   6.467   5.128   6.756  0.2283  1.1816  0.0019
 9017SOL    HW228246   6.602   5.138   6.687  0.2963 -1.5821 -0.3706
 9018SOL     OW28247   4.679   4.689   5.609  0.0935  0.3586 -0.2254
 9018SOL    HW128248   4.715   4.605   5.582  1.2672  0.6676  0.3183
 9018SOL    HW228249   4.683   4.744   5.530  0.6131  0.3237 -0.2214
 9019SOL     OW28250   2.190   6.113   6.339  0.7417 -0.4754 -0.1790
 9019SOL    HW128251   2.284   6.128   6.331  0.8473 -1.4755 -1.1857
 9019SOL    HW228252   2.160   6.108   6.248 -0.4389  0.7100  0.1342
 9020SOL     OW28253   3.240   5.371   2.782 -0.2376 -0.1487 -0.0745
 9020SOL    HW128254   3.188   5.428   2.839  0.5889  2.0771 -1.3954
 9020SOL    HW228255   3.217   5.399   2.693  0.2122 -1.9418 -0.8034
 9021SOL     OW28256   4.249   0.422   2.626 -0.2620 -0.2502  0.2060
 9021SOL    HW128257   4.322   0.380   2.671 -0.4250 -0.6649  0.0849
 9021SOL    HW228258   4.173   0.369   2.649 -0.3203 -0.5763 -0.7110
 9022SOL     OW28259   0.900   4.461   7.944 -0.5499 -0.2485 -0.2794
 9022SOL    HW128260   0.988   4.473   7.909  0.1720 -0.0224  1.5089
 9022SOL    HW228261   0.864   4.549   7.950 -0.0746 -0.1247  0.9663
 9023SOL     OW28262   8.088   7.528   7.699 -0.4954  0.6474  0.0758
 9023SOL    HW128263   8.169   7.512   7.746 -1.7736 -0.4393  2.0513
 9023SOL    HW228264   8.116   7.562   7.614  1.9892  0.4995  0.7533
 9024SOL     OW28265   7.499   2.391   6.587 -0.0479 -0.0223  0.1102
 9024SOL    HW128266   7.496   2.485   6.567  0.6811  0.0408  0.2604
 9024SOL    HW228267   7.457   2.349   6.512 -0.7164  0.4496  0.2206
 9025SOL     OW28268   0.504   6.438   6.934  0.1980 -0.3007 -1.0643
 9025SOL    HW128269   0.579   6.481   6.975 -0.2538 -0.2788 -0.2465
 9025SOL    HW228270   0.482   6.367   6.994 -1.0729  0.3191 -0.7706
 9026SOL     OW28271   7.879   1.802   1.813  0.3160  0.2083  0.5749
 9026SOL    HW128272   7.800   1.843   1.847  0.5786 -0.1956  1.7002
 9026SOL    HW228273   7.850   1.755   1.735 -0.1109  1.9517 -0.3663
 9027SOL     OW28274   5.273   4.759   7.658  0.3244  1.1664  0.2556
 9027SOL    HW128275   5.292   4.776   7.566 -0.3176  0.2460 -0.0638
 9027SOL    HW228276   5.180   4.777   7.667  0.1804  0.3273  0.4946
 9028SOL     OW28277   5.386   5.286   1.659  0.0184 -0.0661  0.3357
 9028SOL    HW128278   5.324   5.282   1.732 -1.2032  0.3366 -0.6557
 9028SOL    HW228279   5.446   5.357   1.682 -1.8122  1.7057 -0.1437
 9029SOL     OW28280   0.988   6.948   7.351 -0.7855 -0.3221 -0.1285
 9029SOL    HW128281   0.999   6.937   7.445  0.9355  2.2379  0.0723
 9029SOL    HW228282   0.913   7.007   7.342 -0.5687 -0.0732 -0.3228
 9030SOL     OW28283   0.534   0.235   2.084 -0.8911  0.1245 -0.3842
 9030SOL    HW128284   0.605   0.263   2.025 -0.0711  0.4986  0.7394
 9030SOL    HW228285   0.526   0.141   2.067  2.2201 -0.6984  1.7461
 9031SOL     OW28286   8.588   1.995   6.867 -0.0565  0.2941  0.6884
 9031SOL    HW128287   8.549   1.908   6.855  1.1276 -0.3401  1.2334
 9031SOL    HW228288   8.672   1.990   6.822  0.0104  1.1642  0.7132
 9032SOL     OW28289   3.962   0.735   6.124  0.5900  0.4804  0.5678
 9032SOL    HW128290   3.878   0.692   6.140  1.0408 -0.5391  0.3161
 9032SOL    HW228291   3.950   0.781   6.040  0.4781 -0.2058  0.1984
 9033SOL     OW28292   4.932   4.979   6.700 -0.0195 -0.0941 -0.4562
 9033SOL    HW128293   4.898   4.890   6.704 -0.2429 -0.0960 -2.0241
 9033SOL    HW228294   4.972   4.993   6.786  0.5326 -1.9048 -0.3787
 9034SOL     OW28295   5.752   7.734   6.275 -0.4420  0.0989  0.0325
 9034SOL    HW128296   5.741   7.812   6.329  0.1482 -0.0543  0.3943
 9034SOL    HW228297   5.813   7.680   6.325  0.4624  0.1435 -0.9883
 9035SOL     OW28298   8.152   5.918   7.819  0.1688  0.5460 -0.2870
 9035SOL    HW128299   8.188   5.852   7.759  1.1794  1.5014 -0.7797
 9035SOL    HW228300   8.159   5.878   7.905  1.5027  0.2833 -0.4888
 9036SOL     OW28301   8.340   0.540   7.677  0.4610  0.1024 -0.0739
 9036SOL    HW128302   8.370   0.451   7.658 -0.0251 -0.7163  2.5413
 9036SOL    HW228303   8.417   0.584   7.713  0.5909  0.6447 -0.9772
 9037SOL     OW28304   5.814   3.594   8.184 -0.2404  0.5439 -0.6563
 9037SOL    HW128305   5.732   3.613   8.137 -1.4331 -1.1243  0.6475
 9037SOL    HW228306   5.800   3.632   8.271 -0.0417 -0.6119 -0.1131
 9038SOL     OW28307   3.575   4.638   6.333 -0.7295 -0.1308  0.1966
 9038SOL    HW128308   3.580   4.675   6.421  0.6885  1.2732 -0.4258
 9038SOL    HW228309   3.618   4.553   6.339  0.9202  0.6947  0.5286
 9039SOL     OW28310   8.250   6.203   7.852 -0.3036  0.0711  0.8590
 9039SOL    HW128311   8.206   6.267   7.795  0.8581 -0.7897 -1.1197
 9039SOL    HW228312   8.215   6.119   7.823  0.0925 -0.3749  1.6689
 9040SOL     OW28313   4.685   0.480   8.068 -0.2593 -0.2664  0.2335
 9040SOL    HW128314   4.668   0.500   7.975 -2.7692  0.2100  0.7192
 9040SOL    HW228315   4.772   0.442   8.068  0.1663  0.4818 -2.2262
 9041SOL     OW28316   0.762   3.735   1.930 -0.6472 -0.2599 -0.0542
 9041SOL    HW128317   0.729   3.703   2.014 -0.9669 -0.3414 -0.2071
 9041SOL    HW228318   0.857   3.724   1.935 -0.5429  0.8696  0.7598
 9042SOL     OW28319   2.648   4.762   1.771  0.1112 -0.4904 -0.0636
 9042SOL    HW128320   2.648   4.799   1.682  2.0521 -1.2769 -0.4573
 9042SOL    HW228321   2.728   4.797   1.811  0.7571 -2.3380  0.3654
 9043SOL     OW28322   3.601   2.641   1.745  0.0272 -0.2801 -0.0519
 9043SOL    HW128323   3.579   2.731   1.769 -0.5441 -0.5822  0.5781
 9043SOL    HW228324   3.529   2.613   1.688 -0.1325 -0.5552  0.2827
 9044SOL     OW28325   0.264   5.297   1.015  0.7115  0.0656 -0.3376
 9044SOL    HW128326   0.331   5.363   1.004 -0.5907  2.1750  2.9035
 9044SOL    HW228327   0.305   5.229   1.069  0.8856  0.2475 -0.2404
 9045SOL     OW28328   0.744   7.509   4.542  0.7063 -0.0271  0.5189
 9045SOL    HW128329   0.791   7.485   4.622 -1.7414 -2.8033  1.2693
 9045SOL    HW228330   0.758   7.434   4.483  1.0857  1.2441 -1.0840
 9046SOL     OW28331   2.746   4.782   7.921  0.0777  0.0547 -0.1083
 9046SOL    HW128332   2.736   4.712   7.986  1.1474 -0.0848 -0.0738
 9046SOL    HW228333   2.718   4.742   7.839  1.6106 -0.7806 -0.2818
 9047SOL     OW28334   3.198   4.321   4.552 -0.0338 -0.1591 -0.2520
 9047SOL    HW128335   3.173   4.343   4.642 -0.2155 -1.0919 -0.0591
 9047SOL    HW228336   3.217   4.227   4.555  0.6531 -0.0533 -1.0406
 9048SOL     OW28337   6.578   2.215   2.536 -0.0572 -0.3857  0.4067
 9048SOL    HW128338   6.621   2.170   2.608  2.9288 -2.1621 -2.2166
 9048SOL    HW228339   6.644   2.277   2.504 -1.7965  1.3344 -0.0354
 9049SOL     OW28340   6.197   1.010   7.226 -0.0777  0.2918 -0.3606
 9049SOL    HW128341   6.116   1.036   7.271 -0.3065  0.6656 -0.9767
 9049SOL    HW228342   6.170   0.941   7.165 -0.3961  1.9410 -2.2041
 9050SOL     OW28343   2.170   6.582   0.141  0.1105  0.2236 -0.4129
 9050SOL    HW128344   2.237   6.607   0.078  2.7135 -2.1430  1.2182
 9050SOL    HW228345   2.190   6.633   0.219  0.2038 -0.6735  0.1642
 9051SOL     OW28346   0.782   0.305   4.058  0.1866  0.9493  0.1368
 9051SOL    HW128347   0.804   0.358   4.135  0.0117  1.2067  0.0146
 9051SOL    HW228348   0.768   0.370   3.989  1.4094  0.6647 -0.3846
 9052SOL     OW28349   1.272   0.804   5.271 -0.4284  0.2720  0.2768
 9052SOL    HW128350   1.286   0.716   5.236 -0.7050 -0.3073  1.5586
 9052SOL    HW228351   1.187   0.799   5.315 -1.5783  1.8553 -1.6244
 9053SOL     OW28352   3.151   5.458   8.096 -0.4853 -0.3790  0.3681
 9053SOL    HW128353   3.199   5.521   8.042 -0.4154 -0.4795  0.3109
 9053SOL    HW228354   3.180   5.476   8.186  0.4949 -1.1522  0.2222
 9054SOL     OW28355   0.102   3.880   3.768  0.4805 -0.1712  0.8549
 9054SOL    HW128356   0.188   3.899   3.731  0.8495 -0.3914  1.5975
 9054SOL    HW228357   0.060   3.825   3.701  0.1057  1.6209 -0.4621
 9055SOL     OW28358   0.332   7.841   5.440  0.8031  0.2565  0.6879
 9055SOL    HW128359   0.311   7.760   5.487  0.1809  1.5392  2.7412
 9055SOL    HW228360   0.427   7.851   5.452  1.0535 -0.5755 -0.3548
 9056SOL     OW28361   1.310   8.228   0.897 -0.4946  0.3700 -0.3412
 9056SOL    HW128362   1.279   8.226   0.988 -2.9069 -1.5294 -1.0745
 9056SOL    HW228363   1.229   8.232   0.845  0.8329  1.6539 -2.4330
 9057SOL     OW28364   3.188   0.592   1.335  0.1996 -0.1563  0.2419
 9057SOL    HW128365   3.199   0.497   1.338 -0.3118 -0.2834 -1.2671
 9057SOL    HW228366   3.275   0.626   1.315  0.2329 -0.3563  0.0432
 9058SOL     OW28367   7.365   2.682   5.609  0.8939 -0.0882  0.7874
 9058SOL    HW128368   7.415   2.693   5.528 -0.8105 -0.3542 -0.3505
 9058SOL    HW228369   7.340   2.771   5.634 -1.0997 -0.1625 -0.6951
 9059SOL     OW28370   8.339   6.096   4.643 -0.0142  0.1532 -0.1165
 9059SOL    HW128371   8.331   6.080   4.737  0.1790 -0.4160 -0.1906
 9059SOL    HW228372   8.431   6.082   4.624 -0.1323 -0.1768 -0.4660
 9060SOL     OW28373   0.970   3.121   7.544 -0.0637  0.2090 -0.5168
 9060SOL    HW128374   0.943   3.052   7.483 -0.4077 -0.0720 -0.0591
 9060SOL    HW228375   0.899   3.185   7.539  0.3584  0.6403 -1.0994
 9061SOL     OW28376   5.111   2.541   3.108  0.4468  0.2139  0.2823
 9061SOL    HW128377   5.030   2.494   3.129  1.2032 -1.2801  0.0120
 9061SOL    HW228378   5.131   2.515   3.018  1.1789  0.6316  0.3158
 9062SOL     OW28379   2.971   5.790   1.571 -0.3951 -0.2821 -0.3726
 9062SOL    HW128380   3.038   5.769   1.506  0.7508  0.9972  0.3442
 9062SOL    HW228381   3.006   5.753   1.653 -1.1431 -0.6451 -0.2133
 9063SOL     OW28382   1.471   7.839   6.537  0.4111  0.3910 -0.2037
 9063SOL    HW128383   1.486   7.779   6.611 -0.9496  0.0726 -0.1596
 9063SOL    HW228384   1.422   7.787   6.474  1.4275  0.7132 -1.2891
 9064SOL     OW28385   8.072   4.167   7.538 -0.2215 -0.5994  0.0296
 9064SOL    HW128386   7.985   4.165   7.578 -0.1963 -1.4032  0.0732
 9064SOL    HW228387   8.112   4.084   7.565 -0.0565 -0.9778 -1.3366
 9065SOL     OW28388   7.898   6.172   2.951  0.2706  0.6319  0.0157
 9065SOL    HW128389   7.925   6.210   3.034  0.6264 -0.0243  0.2078
 9065SOL    HW228390   7.867   6.084   2.973  0.1812  0.5238 -0.5129
 9066SOL     OW28391   3.956   7.844   4.429  0.0309  0.5251 -0.2240
 9066SOL    HW128392   3.886   7.780   4.416 -0.4987  0.8634  0.8145
 9066SOL    HW228393   3.956   7.860   4.524  3.1229 -1.3165  0.2642
 9067SOL     OW28394   7.946   2.374   7.061  0.0202  0.2205 -0.1015
 9067SOL    HW128395   7.982   2.449   7.013 -0.5094 -0.9011 -2.4229
 9067SOL    HW228396   7.857   2.401   7.083  1.0636  1.7702  2.8225
 9068SOL     OW28397   6.353   3.948   5.396  0.0952 -1.1029 -0.1734
 9068SOL    HW128398   6.423   3.896   5.436 -0.2557 -0.5840  1.1728
 9068SOL    HW228399   6.299   3.976   5.470 -1.2633 -1.0903 -1.1485
 9069SOL     OW28400   2.796   2.017   4.555  0.3349 -0.2943 -0.6136
 9069SOL    HW128401   2.830   2.080   4.491  0.4221  0.7488  0.4202
 9069SOL    HW228402   2.841   2.040   4.637 -1.7851  0.2168  0.4750
 9070SOL     OW28403   3.824   5.020   3.516  0.1349 -0.7761 -0.2217
 9070SOL    HW128404   3.810   5.006   3.610  0.0787 -1.1684 -0.2904
 9070SOL    HW228405   3.815   5.115   3.505  2.2441 -0.4326  0.5304
 9071SOL     OW28406   2.043   3.366   5.714  0.1616 -0.2766  0.2272
 9071SOL    HW128407   2.096   3.342   5.790  1.1786  1.0396 -0.0342
 9071SOL    HW228408   2.016   3.282   5.677  0.2882 -0.9479  1.5957
 9072SOL     OW28409   7.557   6.729   7.785  0.6916 -0.1696 -0.1566
 9072SOL    HW128410   7.464   6.708   7.800  0.4897 -0.8182 -2.0423
 9072SOL    HW228411   7.594   6.648   7.750  1.8834  0.2225  0.1645
 9073SOL     OW28412   1.555   5.532   2.099  0.3132  0.0667  0.0950
 9073SOL    HW128413   1.583   5.519   2.008 -0.0640 -0.7383  0.0844
 9073SOL    HW228414   1.635   5.557   2.146  0.5185  0.4357 -0.4460
 9074SOL     OW28415   3.550   0.450   6.377 -0.0795 -0.2797  0.2215
 9074SOL    HW128416   3.632   0.425   6.419  1.5393  2.5933 -0.9181
 9074SOL    HW228417   3.494   0.373   6.384  3.3365 -3.0484 -0.5615
 9075SOL     OW28418   6.783   6.419   7.816 -0.0461  0.1715 -0.3770
 9075SOL    HW128419   6.731   6.453   7.743 -0.9381 -1.9468 -0.8059
 9075SOL    HW228420   6.739   6.338   7.841  1.4062 -0.1886  1.2084
 9076SOL     OW28421   8.201   2.748   0.353 -0.2755 -0.2654  0.3324
 9076SOL    HW128422   8.245   2.812   0.408  1.1007 -0.5648 -0.3580
 9076SOL    HW228423   8.272   2.695   0.317 -1.2277 -0.9092 -0.6816
 9077SOL     OW28424   7.255   5.847   7.812  0.1933  0.2146  0.6058
 9077SOL    HW128425   7.249   5.928   7.864 -2.7241 -0.1609  1.0135
 9077SOL    HW228426   7.210   5.781   7.865  0.6531 -1.1768 -0.6691
 9078SOL     OW28427   3.441   6.489   3.813 -0.0837  0.0236  0.2164
 9078SOL    HW128428   3.514   6.441   3.774 -1.3609 -1.3279 -0.6057
 9078SOL    HW228429   3.459   6.489   3.907  0.6659 -0.7995  0.0832
 9079SOL     OW28430   7.813   2.823   5.646 -0.4274 -0.7330  0.3166
 9079SOL    HW128431   7.874   2.870   5.704  0.0473 -1.6379  0.5753
 9079SOL    HW228432   7.734   2.814   5.699 -1.4163  1.8360 -0.5719
 9080SOL     OW28433   6.735   1.218   1.799 -0.1455 -0.4626  0.5284
 9080SOL    HW128434   6.749   1.222   1.894 -0.7447 -1.3998  0.6691
 9080SOL    HW228435   6.702   1.306   1.776 -4.7555 -1.5007  2.0410
 9081SOL     OW28436   6.621   7.160   2.367  0.3131  0.2270  0.8236
 9081SOL    HW128437   6.566   7.082   2.358  1.0885 -0.4047  1.4508
 9081SOL    HW228438   6.560   7.233   2.359 -0.7187 -0.4577  2.0142
 9082SOL     OW28439   0.450   1.760   5.757 -0.0713  0.0537 -0.3627
 9082SOL    HW128440   0.545   1.764   5.758 -0.0812  0.3322 -0.2570
 9082SOL    HW228441   0.423   1.837   5.707 -0.2352 -0.1657 -0.6142
 9083SOL     OW28442   5.805   7.166   6.561  0.2251 -0.0879  0.7223
 9083SOL    HW128443   5.723   7.177   6.610 -0.0029  1.3524  0.0786
 9083SOL    HW228444   5.873   7.173   6.628 -0.1478 -2.0908  1.3882
 9084SOL     OW28445   8.222   5.688   1.815 -0.1614 -0.0375 -0.1284
 9084SOL    HW128446   8.315   5.699   1.793  0.2682  1.2131  2.0312
 9084SOL    HW228447   8.213   5.727   1.902 -2.6026 -0.7049 -0.0078
 9085SOL     OW28448   6.133   5.442   1.604  0.2224  0.4353  0.0609
 9085SOL    HW128449   6.083   5.420   1.525 -0.4928  1.8444  0.0826
 9085SOL    HW228450   6.096   5.387   1.673 -0.1233  0.2240 -0.2904
 9086SOL     OW28451   4.666   3.157   8.468  0.0893  0.0107 -0.1026
 9086SOL    HW128452   4.608   3.096   8.422  1.1283 -1.5690  0.5904
 9086SOL    HW228453   4.619   3.241   8.467 -1.0600 -0.6135 -1.7233
 9087SOL     OW28454   3.515   7.384   7.959 -0.0114 -0.1312  0.5228
 9087SOL    HW128455   3.426   7.378   7.924 -0.1387 -0.1687  0.8537
 9087SOL    HW228456   3.570   7.345   7.891 -0.2636 -0.2450  0.3833
 9088SOL     OW28457   2.132   4.756   2.890  0.2338 -0.1716  0.3398
 9088SOL    HW128458   2.157   4.746   2.798  0.3296 -2.1727  0.5372
 9088SOL    HW228459   2.197   4.704   2.937 -0.6367 -0.3071  1.4083
 9089SOL     OW28460   7.990   0.109   7.351  0.5262  0.5835  0.1327
 9089SOL    HW128461   7.940   0.185   7.381 -2.0385 -0.0219 -2.2384
 9089SOL    HW228462   7.938   0.033   7.380  0.3055 -0.0877 -1.9032
 9090SOL     OW28463   6.268   2.043   3.172  0.3331 -0.3506 -0.1089
 9090SOL    HW128464   6.333   2.013   3.109 -0.6869 -0.5865 -1.0796
 9090SOL    HW228465   6.231   2.123   3.133 -0.1017 -0.3332  0.3228
 9091SOL     OW28466   8.602   7.068   1.127  0.9730  0.1196  0.1210
 9091SOL    HW128467   8.510   7.060   1.105  0.3361  0.4121  2.4351
 9091SOL    HW228468   8.648   7.026   1.054 -0.9575 -0.0855 -1.0453
 9092SOL     OW28469   4.361   8.191   6.018 -0.0291 -0.0509  0.2214
 9092SOL    HW128470   4.302   8.198   6.093 -0.1424 -2.0755  0.3908
 9092SOL    HW228471   4.433   8.250   6.039 -2.0016  2.6423 -0.0761
 9093SOL     OW28472   2.920   0.321   7.415 -0.9367 -0.0830 -0.0308
 9093SOL    HW128473   2.908   0.320   7.320 -2.4219 -1.2431  0.1152
 9093SOL    HW228474   2.974   0.244   7.432  1.5810  1.5513 -0.1006
 9094SOL     OW28475   1.797   1.180   7.339 -0.3974 -0.3799 -0.2683
 9094SOL    HW128476   1.863   1.125   7.381 -0.2177  1.6944  2.4220
 9094SOL    HW228477   1.714   1.135   7.355 -0.0632 -0.8289  0.2132
 9095SOL     OW28478   5.198   2.544   0.914 -0.6050  0.7560  0.4131
 9095SOL    HW128479   5.160   2.617   0.865  0.0138  1.9747  1.7032
 9095SOL    HW228480   5.292   2.549   0.895 -0.7314 -0.8089 -0.8718
 9096SOL     OW28481   4.760   4.982   1.623 -0.0734  0.0071 -0.5431
 9096SOL    HW128482   4.782   5.074   1.639  0.2721 -0.3489  1.2424
 9096SOL    HW228483   4.844   4.936   1.629 -0.4077 -0.5707 -0.1694
 9097SOL     OW28484   0.739   5.291   2.770 -0.1960 -0.2263 -0.1948
 9097SOL    HW128485   0.774   5.283   2.682  1.4036 -1.0048  0.4586
 9097SOL    HW228486   0.742   5.202   2.805  0.4778  0.2721  1.0831
 9098SOL     OW28487   1.700   3.492   5.922  0.5326 -0.2814 -0.0352
 9098SOL    HW128488   1.606   3.497   5.942  0.5380 -0.5046  0.0489
 9098SOL    HW228489   1.741   3.470   6.005  0.8539  1.5809  0.3503
 9099SOL     OW28490   4.703   7.971   3.792 -0.2537  0.5650  0.8182
 9099SOL    HW128491   4.790   7.976   3.830  0.5620 -1.6413 -0.5597
 9099SOL    HW228492   4.665   8.058   3.806  1.6929  1.2158  2.4831
 9100SOL     OW28493   6.864   3.431   6.386  0.1911 -0.5888 -0.5235
 9100SOL    HW128494   6.848   3.472   6.471 -1.6078 -0.0577 -1.0811
 9100SOL    HW228495   6.838   3.498   6.322 -0.2236 -1.6316 -1.4695
 9101SOL     OW28496   3.600   6.710   4.015  0.3566  0.3076  0.0265
 9101SOL    HW128497   3.668   6.659   4.060  0.2147 -0.0649 -0.1776
 9101SOL    HW228498   3.563   6.649   3.951 -1.0549  0.0959  0.9901
 9102SOL     OW28499   8.424   2.838   1.670 -0.3749  0.5625  0.0982
 9102SOL    HW128500   8.481   2.802   1.738 -2.2611  0.2822  1.5972
 9102SOL    HW228501   8.340   2.853   1.714 -2.0396 -0.6950 -2.4115
 9103SOL     OW28502   8.328   0.341   2.357 -0.0823 -0.2914  0.1022
 9103SOL    HW128503   8.351   0.339   2.450 -1.2148 -0.7219  0.3967
 9103SOL    HW228504   8.349   0.253   2.326 -1.3008 -0.7105  0.3899
 9104SOL     OW28505   4.371   6.877   2.180  0.6145  0.6070 -0.1068
 9104SOL    HW128506   4.415   6.954   2.143 -1.3529  1.5725 -0.5431
 9104SOL    HW228507   4.416   6.862   2.263  0.0346  3.2307  0.7714
 9105SOL     OW28508   4.621   1.784   0.006  0.0574  0.0435  0.1502
 9105SOL    HW128509   4.708   1.762   0.038  0.4024  1.5058  0.2725
 9105SOL    HW228510   4.626   1.876  -0.018 -0.6762 -0.5308 -2.5036
 9106SOL     OW28511   0.771   3.261   8.179  0.1060 -0.4094  0.3797
 9106SOL    HW128512   0.734   3.173   8.181  0.0175 -0.3683  0.6330
 9106SOL    HW228513   0.752   3.294   8.091 -1.3253 -0.0119  0.8103
 9107SOL     OW28514   3.950   2.752   6.772  0.3030  0.3549  0.3933
 9107SOL    HW128515   4.024   2.705   6.733 -0.7812  1.1507 -3.0315
 9107SOL    HW228516   3.986   2.838   6.794  0.5850  0.5537 -0.7361
 9108SOL     OW28517   4.923   3.072   3.403  0.2713 -0.5240 -0.0001
 9108SOL    HW128518   4.890   3.162   3.403 -0.8939 -0.9427  0.2350
 9108SOL    HW228519   4.962   3.062   3.316  0.8781  0.3674  0.1525
 9109SOL     OW28520   8.086   6.497   6.527  0.1940  0.4274 -0.9458
 9109SOL    HW128521   8.148   6.522   6.595  0.4727 -1.0293 -0.6264
 9109SOL    HW228522   8.138   6.450   6.462 -0.5898 -1.2176 -0.4529
 9110SOL     OW28523   4.353   0.041   3.948 -0.5265 -0.4763  0.2032
 9110SOL    HW128524   4.313   0.054   3.861 -1.2146 -0.0090  0.5785
 9110SOL    HW228525   4.393   0.126   3.969 -0.9782 -0.3664  0.6426
 9111SOL     OW28526   7.030   4.226   7.218  0.0455  0.7874 -0.1368
 9111SOL    HW128527   7.014   4.314   7.250  0.3287  0.5317  0.7404
 9111SOL    HW228528   7.035   4.235   7.122 -1.1923  1.5151 -0.1641
 9112SOL     OW28529   2.471   2.977   1.968 -0.2430  0.3114  0.3418
 9112SOL    HW128530   2.545   3.031   1.994  1.8061 -1.7664 -0.8893
 9112SOL    HW228531   2.440   2.937   2.050 -0.5716  1.7912  0.9762
 9113SOL     OW28532   4.557   1.448   6.611  0.2500  0.1853  0.1947
 9113SOL    HW128533   4.564   1.379   6.677 -0.5251  1.4675  1.6878
 9113SOL    HW228534   4.543   1.528   6.662  0.5474  1.3691 -1.5046
 9114SOL     OW28535   6.504   7.727   5.646  0.0228  0.0896 -0.1849
 9114SOL    HW128536   6.553   7.806   5.623  2.6407 -1.2258  0.4360
 9114SOL    HW228537   6.494   7.680   5.563  0.0880  0.2341 -0.2743
 9115SOL     OW28538   4.518   1.810   2.385 -0.2285  0.4601 -0.0849
 9115SOL    HW128539   4.495   1.892   2.429 -3.0874  0.5998 -1.6253
 9115SOL    HW228540   4.470   1.742   2.433 -1.5277  0.3273 -1.5047
 9116SOL     OW28541   4.988   5.715   4.185  0.3692  0.2639  0.0279
 9116SOL    HW128542   4.958   5.766   4.110  0.4139 -0.1027 -0.2422
 9116SOL    HW228543   5.084   5.713   4.176  0.4953  1.4692  0.9119
 9117SOL     OW28544   2.254   0.649   7.619  0.2268  0.0025 -0.4002
 9117SOL    HW128545   2.313   0.577   7.601 -0.6224 -0.3323 -2.0226
 9117SOL    HW228546   2.216   0.671   7.534 -1.1971  0.8816  0.4180
 9118SOL     OW28547   4.533   3.689   5.613  0.9688  0.0730  0.5631
 9118SOL    HW128548   4.570   3.767   5.572 -0.0558 -0.3611 -1.3221
 9118SOL    HW228549   4.598   3.662   5.677  1.1085  2.7804  1.6908
 9119SOL     OW28550   5.975   7.039   6.727 -0.1739  0.2951 -0.0360
 9119SOL    HW128551   6.049   7.080   6.773  0.2535  0.5473 -0.9246
 9119SOL    HW228552   5.909   7.025   6.795 -0.4974  2.7898  0.2504
 9120SOL     OW28553   6.067   6.355   7.815  0.5316  0.0258  0.1282
 9120SOL    HW128554   6.044   6.273   7.770 -2.1941  1.6698 -1.7943
 9120SOL    HW228555   6.100   6.327   7.900 -2.5866 -3.0629  0.5577
 9121SOL     OW28556   0.123   3.061   6.481 -0.1891 -0.0428  0.1814
 9121SOL    HW128557   0.109   3.010   6.401 -0.8794 -1.6614  1.2771
 9121SOL    HW228558   0.062   3.134   6.474  0.6809  0.5897 -1.3412
 9122SOL     OW28559   4.133   4.474   0.394 -0.2345 -0.0037 -0.5774
 9122SOL    HW128560   4.163   4.556   0.354  0.3013  0.7518  1.2189
 9122SOL    HW228561   4.122   4.413   0.321 -2.4144  2.1630 -2.2226
 9123SOL     OW28562   5.657   6.643   6.610  0.0215 -0.6006  0.1031
 9123SOL    HW128563   5.571   6.664   6.574  0.0645 -1.4383 -0.5199
 9123SOL    HW228564   5.719   6.692   6.557 -0.0620 -0.0572  0.5023
 9124SOL     OW28565   7.871   3.892   3.328  0.0828 -0.0609 -0.5998
 9124SOL    HW128566   7.882   3.818   3.387  0.7152  0.2237 -0.3516
 9124SOL    HW228567   7.807   3.948   3.371 -0.4087 -0.4652 -0.7959
 9125SOL     OW28568   4.191   5.761   5.568 -0.0033 -0.2933 -0.1731
 9125SOL    HW128569   4.166   5.676   5.605  1.5066  0.5971  3.4055
 9125SOL    HW228570   4.113   5.816   5.580 -0.0161 -0.4237  0.4081
 9126SOL     OW28571   7.009   4.650   0.497  0.1321  0.3566 -0.0629
 9126SOL    HW128572   6.967   4.725   0.540 -1.7180  0.1522 -1.4046
 9126SOL    HW228573   7.084   4.687   0.452  0.2531  1.0874  0.7049
 9127SOL     OW28574   8.276   0.882   4.878  0.1404 -0.2517 -0.5098
 9127SOL    HW128575   8.367   0.884   4.847  0.4810  0.2479  0.4691
 9127SOL    HW228576   8.224   0.913   4.804  0.7098 -0.9837 -1.2414
 9128SOL     OW28577   0.099   5.491   3.673  0.0382  0.5193 -0.2016
 9128SOL    HW128578   0.050   5.420   3.714  0.0707 -0.1099 -1.2338
 9128SOL    HW228579   0.191   5.465   3.683  0.0986  0.8585  0.1928
 9129SOL     OW28580   1.213   6.671   5.210  0.1627  0.0420 -0.3022
 9129SOL    HW128581   1.244   6.633   5.128  1.2445  0.1026  0.0653
 9129SOL    HW228582   1.215   6.598   5.272 -0.9093 -0.0697 -0.3718
 9130SOL     OW28583   1.174   5.879   5.113 -0.1561  0.5813 -0.1064
 9130SOL    HW128584   1.261   5.915   5.129  0.3581 -0.7905  0.2557
 9130SOL    HW228585   1.158   5.818   5.185 -0.2818 -1.1976 -1.5653
 9131SOL     OW28586   0.499   6.020   8.553 -0.7141 -0.2735  0.3169
 9131SOL    HW128587   0.561   5.954   8.586 -1.4874 -0.7133  0.9263
 9131SOL    HW228588   0.521   6.100   8.600 -0.6019 -0.4212  0.5159
 9132SOL     OW28589   2.928   5.204   3.380 -0.1945 -0.3607 -0.5148
 9132SOL    HW128590   2.947   5.112   3.362  1.7980 -0.2926  0.8172
 9132SOL    HW228591   3.009   5.237   3.419 -2.0332  1.0043  2.4929
 9133SOL     OW28592   3.852   7.866   3.872 -0.0263 -0.0303 -0.4941
 9133SOL    HW128593   3.921   7.886   3.937 -0.2507  0.2428 -0.3360
 9133SOL    HW228594   3.889   7.897   3.789 -0.0234  0.2742 -0.3832
 9134SOL     OW28595   8.252   1.032   6.011 -0.1733  1.0141 -0.7359
 9134SOL    HW128596   8.261   1.040   6.106 -1.0083  0.8648 -0.6323
 9134SOL    HW228597   8.318   1.091   5.975  2.1967 -1.1044 -0.1241
 9135SOL     OW28598   7.005   7.123   7.875  0.8718  0.1669 -0.1283
 9135SOL    HW128599   6.912   7.101   7.875  1.1447 -1.0587 -0.3606
 9135SOL    HW228600   7.025   7.144   7.966  0.3163  0.7076 -0.1255
 9136SOL     OW28601   6.526   8.274   3.566 -0.3935 -0.6160 -0.2977
 9136SOL    HW128602   6.544   8.284   3.660  0.2455  0.6580 -0.5440
 9136SOL    HW228603   6.468   8.198   3.562 -0.7099 -0.4944  1.1651
 9137SOL     OW28604   7.211   0.228   5.325  0.0757  0.1589  0.1862
 9137SOL    HW128605   7.232   0.172   5.400  1.4065 -0.4885 -0.6336
 9137SOL    HW228606   7.261   0.308   5.341  0.6484 -0.1217 -0.1788
 9138SOL     OW28607   7.099   2.230   4.412  0.1748 -0.0789  0.1614
 9138SOL    HW128608   7.184   2.251   4.451  0.3043  1.5043 -0.8651
 9138SOL    HW228609   7.120   2.175   4.337  0.5360  1.8305 -1.2151
 9139SOL     OW28610   7.932   6.921   4.222  0.3988 -0.2440  0.2712
 9139SOL    HW128611   8.007   6.975   4.201  0.3482 -0.6347 -1.0235
 9139SOL    HW228612   7.930   6.918   4.317 -0.2556  2.9158  0.4458
 9140SOL     OW28613   6.197   1.303   4.515  0.0962  0.7483  0.4651
 9140SOL    HW128614   6.225   1.240   4.449  0.2520 -0.4203  1.6000
 9140SOL    HW228615   6.102   1.305   4.509  0.0718  0.1820  0.5931
 9141SOL     OW28616   6.427   4.624   4.387  0.0771  1.0407  0.0283
 9141SOL    HW128617   6.421   4.548   4.444  0.9015 -0.0227 -1.2435
 9141SOL    HW228618   6.405   4.699   4.444  0.3849 -0.0085  1.5821
 9142SOL     OW28619   4.321   4.514   6.310 -0.2717 -0.3885  0.2142
 9142SOL    HW128620   4.374   4.494   6.387 -0.8978  3.4774  1.8893
 9142SOL    HW228621   4.236   4.539   6.346 -0.9694  0.3775 -1.8333
 9143SOL     OW28622   4.938   6.941   5.942 -0.2187 -0.1575  0.1592
 9143SOL    HW128623   4.893   6.939   6.027 -0.5110 -0.3341  0.0001
 9143SOL    HW228624   4.930   6.852   5.908  0.5127 -0.2627  0.2628
 9144SOL     OW28625   3.795   8.419   4.304 -0.1201  0.3322 -0.1939
 9144SOL    HW128626   3.885   8.441   4.327  0.1920  1.5340 -2.3187
 9144SOL    HW228627   3.750   8.504   4.301 -0.9261 -0.1022 -0.7023
 9145SOL     OW28628   3.558   2.434   1.492  0.4143  0.2356 -0.0928
 9145SOL    HW128629   3.476   2.404   1.453  1.2533 -1.0226 -0.9845
 9145SOL    HW228630   3.571   2.378   1.568  0.1137  0.9061  0.4651
 9146SOL     OW28631   1.941   3.383   8.237  0.5501 -0.0229 -0.2450
 9146SOL    HW128632   2.026   3.355   8.270  1.0296  1.0166 -0.5666
 9146SOL    HW228633   1.880   3.316   8.268  1.5565 -1.0639 -0.4551
 9147SOL     OW28634   2.402   1.425   1.267 -0.2236 -0.2354  0.6024
 9147SOL    HW128635   2.334   1.377   1.220  1.8144 -2.2801 -0.4920
 9147SOL    HW228636   2.422   1.369   1.342  0.2476  0.3269  0.9005
 9148SOL     OW28637   3.651   7.564   3.054 -0.1256  0.4425  0.0572
 9148SOL    HW128638   3.658   7.475   3.019  1.6261  0.5169  0.1225
 9148SOL    HW228639   3.645   7.552   3.149  0.5015  0.3910  0.0951
 9149SOL     OW28640   4.806   4.510   0.189 -0.0572  0.2544 -0.1783
 9149SOL    HW128641   4.899   4.493   0.178  0.0121  0.4399  0.1287
 9149SOL    HW228642   4.773   4.435   0.240 -0.2086 -0.1513 -0.8496
 9150SOL     OW28643   4.204   5.577   7.119 -0.3491 -0.1121  0.0964
 9150SOL    HW128644   4.165   5.547   7.201 -0.1818 -1.1004 -0.1739
 9150SOL    HW228645   4.269   5.510   7.097  0.7659  0.9869 -0.0028
 9151SOL     OW28646   3.347   6.260   5.533  0.1696 -0.4578 -0.6060
 9151SOL    HW128647   3.422   6.208   5.505  0.1663  0.0783 -1.6825
 9151SOL    HW228648   3.325   6.313   5.456  1.1973  2.3774  0.9040
 9152SOL     OW28649   0.492   4.938   3.853  0.5827 -0.0433  0.0232
 9152SOL    HW128650   0.550   4.907   3.784  1.0611 -0.6460  0.6737
 9152SOL    HW228651   0.549   4.990   3.910  0.4446 -0.4354  0.5341
 9153SOL     OW28652   1.758   1.973   8.372 -0.3217 -0.4819  0.1985
 9153SOL    HW128653   1.673   1.933   8.390  0.0624 -1.6515 -0.5401
 9153SOL    HW228654   1.768   1.969   8.277  0.9118 -1.1145  0.3264
 9154SOL     OW28655   5.391   7.287   0.313 -0.2704 -0.0503  0.2513
 9154SOL    HW128656   5.322   7.334   0.267 -0.5914  1.2788  1.9600
 9154SOL    HW228657   5.397   7.332   0.398  0.9605 -1.7368  1.1065
 9155SOL     OW28658   0.590   3.115   4.107  0.3192 -0.4693  0.2017
 9155SOL    HW128659   0.641   3.113   4.188 -0.4731 -0.3548  0.7085
 9155SOL    HW228660   0.508   3.069   4.129 -0.2299  0.2532 -0.3022
 9156SOL     OW28661   8.333   2.058   0.658  0.0403  0.4062  0.1197
 9156SOL    HW128662   8.341   2.004   0.736  0.4655  0.8530  0.3903
 9156SOL    HW228663   8.298   2.141   0.689  0.7114  0.7732 -0.0733
 9157SOL     OW28664   4.915   2.538   7.597  0.0110  0.1983  0.3854
 9157SOL    HW128665   4.897   2.608   7.535  0.3987 -0.5569 -0.6138
 9157SOL    HW228666   4.890   2.574   7.682 -2.4273  0.5852 -0.4086
 9158SOL     OW28667   7.457   1.399   7.600  0.8428 -0.8011  0.3842
 9158SOL    HW128668   7.434   1.325   7.543  0.6600 -1.3977  1.2110
 9158SOL    HW228669   7.460   1.474   7.542 -0.1249 -1.2553 -0.2804
 9159SOL     OW28670   5.151   3.520   7.766  0.1464 -0.3356  0.0289
 9159SOL    HW128671   5.224   3.532   7.705  0.0178  2.1702  0.2477
 9159SOL    HW228672   5.108   3.440   7.737  1.8316 -0.8264 -1.2956
 9160SOL     OW28673   3.110   7.351   3.750  0.5324 -0.1292 -0.3792
 9160SOL    HW128674   3.153   7.277   3.707  0.8903 -0.9206  1.2562
 9160SOL    HW228675   3.175   7.421   3.748  1.6390 -1.0334  1.2624
 9161SOL     OW28676   4.854   1.557   4.369 -0.0191  0.4439 -0.1843
 9161SOL    HW128677   4.944   1.556   4.403  0.7192  1.5366 -1.9532
 9161SOL    HW228678   4.865   1.561   4.274 -1.9370  1.6085 -0.4108
 9162SOL     OW28679   6.435   0.772   4.457 -0.2611  0.3748  0.4466
 9162SOL    HW128680   6.469   0.689   4.490  1.0790  0.9857  0.6691
 9162SOL    HW228681   6.505   0.806   4.401 -0.2246  1.9516  1.3846
 9163SOL     OW28682   6.512   6.826   3.341 -0.3242  0.6589  0.5041
 9163SOL    HW128683   6.424   6.797   3.362 -0.0306  0.0039  0.8880
 9163SOL    HW228684   6.539   6.770   3.268 -0.4450  1.2665 -0.0099
 9164SOL     OW28685   5.106   5.270   6.679  0.0723  0.1520 -0.1190
 9164SOL    HW128686   5.091   5.273   6.585  1.6564 -1.1866 -0.4535
 9164SOL    HW228687   5.156   5.349   6.698  1.9887 -0.8286 -0.8842
 9165SOL     OW28688   2.524   2.126   6.829  0.0241  0.5587  0.3822
 9165SOL    HW128689   2.543   2.180   6.906 -0.2142  1.5863 -0.2531
 9165SOL    HW228690   2.584   2.158   6.761  0.4157 -0.5091  0.2051
 9166SOL     OW28691   3.231   0.390   2.121 -0.0628 -0.4362 -0.0619
 9166SOL    HW128692   3.300   0.357   2.178  0.2368  1.2572  0.6128
 9166SOL    HW228693   3.278   0.426   2.045 -0.0685  1.5941  0.8376
 9167SOL     OW28694   1.298   4.919   3.931  0.4862 -0.5776 -0.1824
 9167SOL    HW128695   1.322   4.986   3.995  1.7659 -0.9597 -0.2269
 9167SOL    HW228696   1.304   4.963   3.846  2.0546 -0.8848 -0.2756
 9168SOL     OW28697   2.474   3.336   8.149  0.2291 -0.2669 -0.1247
 9168SOL    HW128698   2.523   3.370   8.074 -1.7423  1.1367 -0.8461
 9168SOL    HW228699   2.405   3.282   8.110 -0.0175 -0.6183  0.7720
 9169SOL     OW28700   3.207   3.990   3.175  0.0402  0.1320 -0.9318
 9169SOL    HW128701   3.206   3.919   3.239 -0.3859  1.0365  0.0911
 9169SOL    HW228702   3.236   4.067   3.224  1.0696  0.5672 -2.1512
 9170SOL     OW28703   3.008   4.085   7.657  0.5517 -0.8333  0.2863
 9170SOL    HW128704   2.920   4.082   7.620  0.9308  1.1062 -0.9348
 9170SOL    HW228705   2.996   4.122   7.744  0.2122  0.2808 -0.2150
 9171SOL     OW28706   7.965   0.409   5.692  0.1448 -0.2521  0.5964
 9171SOL    HW128707   7.880   0.393   5.732 -0.0044  1.5366  1.0994
 9171SOL    HW228708   8.027   0.363   5.748 -0.2744  0.4594  1.6929
 9172SOL     OW28709   0.802   0.205   6.470  0.4989 -0.0433 -0.2111
 9172SOL    HW128710   0.791   0.121   6.515  1.1559  0.2239  0.4508
 9172SOL    HW228711   0.895   0.224   6.477  0.4329  0.5189 -0.7759
 9173SOL     OW28712   7.478   0.773   5.765  0.1442  0.9740 -0.0340
 9173SOL    HW128713   7.559   0.783   5.815  0.3405 -1.9947  0.4330
 9173SOL    HW228714   7.420   0.722   5.823 -0.3332 -0.8739 -2.0053
 9174SOL     OW28715   3.405   8.045   0.040  0.3641 -0.4614 -0.1181
 9174SOL    HW128716   3.350   7.990  -0.015  1.0483 -1.1758 -0.1044
 9174SOL    HW228717   3.391   8.012   0.129  0.0815 -0.0155  0.0038
 9175SOL     OW28718   2.171   6.530   6.942  0.1251 -0.2418  0.0159
 9175SOL    HW128719   2.229   6.547   6.869 -0.1447 -0.5115 -0.2632
 9175SOL    HW228720   2.135   6.443   6.925  0.3869 -0.4917  0.6852
 9176SOL     OW28721   0.984   6.613   3.533 -0.5542  0.1873 -0.4954
 9176SOL    HW128722   1.039   6.588   3.607 -0.0134 -0.8200 -1.2271
 9176SOL    HW228723   0.982   6.536   3.477 -2.1889  0.4177 -0.8048
 9177SOL     OW28724   7.357   0.606   5.950 -0.3012  0.0191  0.4083
 9177SOL    HW128725   7.423   0.597   6.019 -0.4472 -0.1715  0.5227
 9177SOL    HW228726   7.288   0.545   5.975 -0.3464 -0.0619  0.0856
 9178SOL     OW28727   8.578   7.280   1.298  0.1433 -0.0626  0.4765
 9178SOL    HW128728   8.506   7.326   1.254  0.5600  0.2656  0.1269
 9178SOL    HW228729   8.594   7.202   1.245  1.8666  1.2434 -1.0751
 9179SOL     OW28730   0.935   2.678   8.071 -0.4745 -0.5426 -0.0222
 9179SOL    HW128731   1.012   2.671   8.127 -0.8989 -0.0933  0.6329
 9179SOL    HW228732   0.891   2.593   8.080  0.1331 -0.9385 -0.6951
 9180SOL     OW28733   2.556   6.265   5.003 -0.4488  0.2615  0.3365
 9180SOL    HW128734   2.566   6.225   4.917 -0.5688  0.7305  0.1019
 9180SOL    HW228735   2.514   6.349   4.986  0.2918  0.7358  0.7578
 9181SOL     OW28736   8.198   0.775   8.157 -0.0983 -0.2623  0.6776
 9181SOL    HW128737   8.284   0.742   8.132 -0.6231 -0.6864 -0.6504
 9181SOL    HW228738   8.163   0.709   8.218  0.2223 -0.4393  0.6680
 9182SOL     OW28739   7.047   7.257   3.810 -0.0914  0.5618  0.1488
 9182SOL    HW128740   7.112   7.222   3.749 -1.8147 -0.4315 -1.2202
 9182SOL    HW228741   7.055   7.352   3.801 -0.3293  0.4542 -1.7566
 9183SOL     OW28742   0.956   5.458   6.621  0.2489  0.0645 -0.5478
 9183SOL    HW128743   0.978   5.521   6.690 -1.8096  0.8861 -0.5484
 9183SOL    HW228744   0.860   5.462   6.616  0.3399  0.8395 -4.1925
 9184SOL     OW28745   1.598   6.663   2.137 -0.0130  0.1477  0.5274
 9184SOL    HW128746   1.583   6.680   2.044  1.7277  0.6661  0.3123
 9184SOL    HW228747   1.541   6.725   2.182  1.0260  1.6874 -0.2157
 9185SOL     OW28748   1.773   8.544   8.317  0.5316  0.5065  0.3379
 9185SOL    HW128749   1.758   8.629   8.359  0.6844  1.8102 -2.0796
 9185SOL    HW228750   1.866   8.542   8.297  0.4159  0.0548 -0.2016
 9186SOL     OW28751   1.083   3.552   6.240 -0.5457  0.2562 -0.2161
 9186SOL    HW128752   1.095   3.457   6.236 -2.5314 -0.0963  0.8542
 9186SOL    HW228753   1.141   3.581   6.311  0.8705  0.0558 -1.2346
 9187SOL     OW28754   0.447   6.800   0.863  0.0715  0.2647  0.3243
 9187SOL    HW128755   0.514   6.747   0.906  1.6102  1.3490 -0.6209
 9187SOL    HW228756   0.465   6.790   0.770 -0.2655  1.5845  0.1011
 9188SOL     OW28757   2.182   2.558   6.584  0.3384 -0.0450  0.1698
 9188SOL    HW128758   2.246   2.498   6.546  2.4017  1.5489  0.8709
 9188SOL    HW228759   2.219   2.582   6.669 -2.1256 -0.3968  1.4214
 9189SOL     OW28760   1.872   3.991   3.234  0.1463  0.5033 -0.3158
 9189SOL    HW128761   1.852   3.901   3.209  0.8094  0.6419 -1.4192
 9189SOL    HW228762   1.960   3.987   3.270 -0.3508  0.5042  0.9511
 9190SOL     OW28763   3.632   4.211   2.259 -1.1389  0.0239 -0.0741
 9190SOL    HW128764   3.668   4.155   2.191 -0.8696 -1.2939  1.1129
 9190SOL    HW228765   3.708   4.240   2.309 -1.4038  0.3470  0.1443
 9191SOL     OW28766   3.772   3.918   4.694  0.0731  0.0974 -0.3983
 9191SOL    HW128767   3.696   3.948   4.645  0.5155  0.2959 -0.9877
 9191SOL    HW228768   3.839   3.984   4.677  0.8054 -0.7711 -1.0474
 9192SOL     OW28769   0.653   0.363   6.121  0.3178  0.2892 -0.0109
 9192SOL    HW128770   0.659   0.270   6.098  0.8075  0.3544 -0.1543
 9192SOL    HW228771   0.560   0.383   6.115  0.1381 -0.3209  0.5197
 9193SOL     OW28772   3.810   2.710   0.505  0.0784 -0.1452  0.5355
 9193SOL    HW128773   3.805   2.739   0.414  0.9743  2.0428  1.1210
 9193SOL    HW228774   3.902   2.688   0.519 -0.1844 -1.1728  0.7398
 9194SOL     OW28775   4.631   0.411   4.114  0.0650 -0.0173 -0.1070
 9194SOL    HW128776   4.636   0.492   4.063 -0.3255 -0.5538 -1.0153
 9194SOL    HW228777   4.546   0.417   4.158  0.6670  0.7313  1.0002
 9195SOL     OW28778   0.952   5.858   6.431  0.0394  0.1049 -0.5552
 9195SOL    HW128779   0.935   5.795   6.361 -1.0542 -2.1236  1.5485
 9195SOL    HW228780   0.867   5.899   6.449 -0.5356 -1.8037  1.5809
 9196SOL     OW28781   7.502   3.253   2.792  0.3727 -0.3947  0.1364
 9196SOL    HW128782   7.536   3.232   2.879  1.7916 -0.0275 -0.3065
 9196SOL    HW228783   7.463   3.172   2.761 -1.0515 -0.2820  1.4865
 9197SOL     OW28784   8.299   6.684   7.529  0.0309  0.2560 -0.5917
 9197SOL    HW128785   8.352   6.666   7.452 -1.0088  0.4737 -1.3866
 9197SOL    HW228786   8.234   6.613   7.531 -1.2491  1.3673 -1.1353
 9198SOL     OW28787   7.734   2.886   7.752  0.2996  0.1412  0.4364
 9198SOL    HW128788   7.741   2.791   7.744 -2.6794 -0.0420 -1.2662
 9198SOL    HW228789   7.751   2.920   7.664 -0.6067  1.0049  0.5752
 9199SOL     OW28790   0.223   5.709   3.537 -0.1543 -0.3443  0.7406
 9199SOL    HW128791   0.179   5.633   3.576  0.7847 -0.9077  0.7391
 9199SOL    HW228792   0.253   5.760   3.613 -3.0917  1.5090  0.8312
 9200SOL     OW28793   5.890   2.448   3.807 -0.6814 -0.4524 -0.4716
 9200SOL    HW128794   5.928   2.444   3.720 -0.1053 -1.0390 -0.1951
 9200SOL    HW228795   5.832   2.525   3.804 -2.2652 -1.6284 -1.9927
 9201SOL     OW28796   2.228   6.416   0.948 -0.0615 -0.4578 -0.0650
 9201SOL    HW128797   2.140   6.390   0.921 -0.1569  0.0198 -0.2110
 9201SOL    HW228798   2.215   6.489   1.008  0.3106  1.3822 -2.0797
 9202SOL     OW28799   5.845   3.158   0.539  0.3615  0.1072 -0.3459
 9202SOL    HW128800   5.827   3.089   0.475  0.2866  0.3479 -0.5869
 9202SOL    HW228801   5.826   3.118   0.623 -1.5539  0.4142 -0.5882
 9203SOL     OW28802   8.281   6.102   0.066 -0.3371 -0.5064  0.4376
 9203SOL    HW128803   8.360   6.057   0.096 -0.3120  0.1573  1.3981
 9203SOL    HW228804   8.282   6.090  -0.029  1.0938 -0.2162  0.3896
 9204SOL     OW28805   2.385   6.596   7.403 -0.4189  0.5737 -0.0634
 9204SOL    HW128806   2.430   6.542   7.468 -3.4176 -1.3230  0.5815
 9204SOL    HW228807   2.382   6.683   7.443 -2.1098 -0.5198  2.4111
 9205SOL     OW28808   1.995   2.073   8.071 -0.4546  0.2224 -0.1246
 9205SOL    HW128809   1.901   2.055   8.062 -0.1037 -1.5578 -0.7590
 9205SOL    HW228810   2.025   2.011   8.137  0.3588  0.4422 -0.2766
 9206SOL     OW28811   6.556   5.301   3.065  0.6849 -0.0059 -0.2231
 9206SOL    HW128812   6.618   5.236   3.097  0.4261  0.1166  0.5335
 9206SOL    HW228813   6.611   5.368   3.025  0.9127 -1.2860 -2.2059
 9207SOL     OW28814   4.241   3.125   4.988 -0.1166 -0.3057  0.1740
 9207SOL    HW128815   4.178   3.140   5.059  0.6876  2.0032  0.4545
 9207SOL    HW228816   4.323   3.159   5.022  0.1507  1.4488 -2.0879
 9208SOL     OW28817   3.185   7.972   1.295  0.1847  0.2778  0.1034
 9208SOL    HW128818   3.270   7.930   1.304 -0.6168 -1.1982  1.1568
 9208SOL    HW228819   3.121   7.902   1.312 -1.2192  1.5314  0.2145
 9209SOL     OW28820   7.569   1.934   1.681 -0.2720  0.6646  0.0941
 9209SOL    HW128821   7.618   1.923   1.763  0.9287  0.8547 -0.5768
 9209SOL    HW228822   7.575   1.849   1.637 -1.2199  0.4528  0.3491
 9210SOL     OW28823   7.342   4.725   5.970 -0.3438 -0.1753  0.0387
 9210SOL    HW128824   7.370   4.807   5.929 -1.8458  0.3357 -0.0065
 9210SOL    HW228825   7.372   4.656   5.910 -1.0752  0.4776 -1.1074
 9211SOL     OW28826   0.738   2.688   4.302  0.7112  0.0586 -0.2872
 9211SOL    HW128827   0.790   2.652   4.229  0.0129 -1.5087 -0.0508
 9211SOL    HW228828   0.659   2.635   4.303 -0.1094  1.2565  0.4943
 9212SOL     OW28829   5.938   0.215   5.617  0.9603  0.2528 -0.1836
 9212SOL    HW128830   5.988   0.203   5.697 -2.1753 -0.7377  1.7900
 9212SOL    HW228831   5.934   0.128   5.578 -0.6621 -0.0717  0.6475
 9213SOL     OW28832   8.056   8.009   3.255  0.0078  0.5101  0.3861
 9213SOL    HW128833   7.993   7.942   3.281 -0.5095  1.7869  2.7304
 9213SOL    HW228834   8.057   8.005   3.160 -2.2691 -0.7788  0.3387
 9214SOL     OW28835   1.967   8.154   0.324  0.0465  0.0791 -0.5823
 9214SOL    HW128836   2.007   8.231   0.364 -1.9714  1.2483 -0.7315
 9214SOL    HW228837   2.031   8.126   0.258  2.1204 -0.1741  1.3992
 9215SOL     OW28838   2.908   2.368   5.468 -0.3998  0.0207  0.1516
 9215SOL    HW128839   2.917   2.302   5.537  0.8348  1.0259  1.0066
 9215SOL    HW228840   2.995   2.409   5.463 -0.8585  0.8937 -1.0592
 9216SOL     OW28841   6.595   7.069   3.881 -0.0700  0.4755 -0.2353
 9216SOL    HW128842   6.616   7.120   3.960  1.2897 -2.9909  1.8651
 9216SOL    HW228843   6.673   7.076   3.826  1.1437 -1.1951  1.1824
 9217SOL     OW28844   5.291   7.755   3.098 -0.0418 -0.6783 -0.2521
 9217SOL    HW128845   5.262   7.842   3.123  0.6385 -0.8876  1.4001
 9217SOL    HW228846   5.283   7.702   3.178  0.9777 -1.7390 -0.8071
 9218SOL     OW28847   0.298   7.094   1.190 -0.1798 -0.9886  0.1065
 9218SOL    HW128848   0.207   7.122   1.201 -0.1702 -1.4499  1.5383
 9218SOL    HW228849   0.294   7.032   1.117 -0.7163  0.2337 -0.9534
 9219SOL     OW28850   1.380   4.691   4.886 -0.5726 -0.0910  0.2000
 9219SOL    HW128851   1.378   4.770   4.941 -3.2296 -1.1600  1.8723
 9219SOL    HW228852   1.422   4.719   4.805  0.8330  2.3628  1.6392
 9220SOL     OW28853   7.794   6.497   4.995 -0.1936 -0.0043 -0.1227
 9220SOL    HW128854   7.785   6.404   4.974 -2.1874  0.6460 -2.7170
 9220SOL    HW228855   7.871   6.525   4.945 -0.5839  0.0300 -0.7246
 9221SOL     OW28856   1.943   7.904   6.043  0.3787  0.6616  0.3035
 9221SOL    HW128857   1.887   7.981   6.056 -1.2010 -0.4359  0.2769
 9221SOL    HW228858   1.999   7.902   6.120 -0.1128  1.3900  0.6918
 9222SOL     OW28859   3.102   5.335   2.353 -0.1532  0.6591  0.2873
 9222SOL    HW128860   3.196   5.329   2.369 -0.1501 -3.1334 -0.3757
 9222SOL    HW228861   3.062   5.331   2.440  0.2800 -0.3008  0.4517
 9223SOL     OW28862   0.618   4.120   3.885 -0.3952 -0.2916  0.5743
 9223SOL    HW128863   0.693   4.164   3.846  0.7197 -3.0643 -0.6509
 9223SOL    HW228864   0.546   4.136   3.824 -0.0148 -0.2400  0.1398
 9224SOL     OW28865   2.026   4.971   2.611 -0.3051 -0.2746 -0.2069
 9224SOL    HW128866   2.060   5.031   2.545  1.3480  0.4185  1.2307
 9224SOL    HW228867   1.931   4.977   2.601 -0.1280  0.0101 -2.3185
 9225SOL     OW28868   4.123   1.882   6.209 -0.3870 -0.0336 -0.1658
 9225SOL    HW128869   4.187   1.822   6.245  0.1656  0.1340 -0.8354
 9225SOL    HW228870   4.168   1.967   6.206 -0.8495  0.2194 -0.0597
 9226SOL     OW28871   2.440   2.803   4.406 -0.2468  0.4700 -0.2821
 9226SOL    HW128872   2.413   2.750   4.481 -0.0086  2.7348  1.5199
 9226SOL    HW228873   2.430   2.745   4.331 -3.5868 -0.9577  1.0647
 9227SOL     OW28874   5.957   5.733   5.990 -0.0118  0.6853  0.2254
 9227SOL    HW128875   5.947   5.638   6.000  0.8381  0.5099 -0.4079
 9227SOL    HW228876   6.050   5.744   5.969  0.2475  1.7928  1.7691
 9228SOL     OW28877   2.776   4.805   5.798  0.7562  0.2858 -0.2372
 9228SOL    HW128878   2.746   4.778   5.885  1.0830  1.5898  0.3002
 9228SOL    HW228879   2.719   4.756   5.738 -0.9148  0.9382  0.7291
 9229SOL     OW28880   4.465   1.056   5.915  0.1394  0.8837  0.2169
 9229SOL    HW128881   4.528   1.124   5.939  0.7911  1.0506 -1.7323
 9229SOL    HW228882   4.436   1.080   5.827 -1.1594 -0.2785  0.2871
 9230SOL     OW28883   4.621   5.556   6.795 -0.0665  0.1958  0.0485
 9230SOL    HW128884   4.529   5.579   6.801  0.5483  3.0548 -0.2166
 9230SOL    HW228885   4.648   5.540   6.885 -0.8017 -0.7105  0.1199
 9231SOL     OW28886   2.139   7.439   6.693  0.0905  0.5703 -0.5954
 9231SOL    HW128887   2.224   7.395   6.694  1.2218  2.6256 -0.1039
 9231SOL    HW228888   2.107   7.431   6.783 -1.2972 -2.0052 -1.2361
 9232SOL     OW28889   8.372   4.227   6.325 -0.2134  0.0813  0.1904
 9232SOL    HW128890   8.354   4.135   6.304  2.5924 -0.5110 -0.0422
 9232SOL    HW228891   8.332   4.240   6.411 -3.1510 -0.4328 -0.9618
 9233SOL     OW28892   5.964   3.667   7.502  0.0677 -0.0757  0.8745
 9233SOL    HW128893   5.871   3.646   7.514  0.2912 -2.8061 -1.2406
 9233SOL    HW228894   5.964   3.739   7.438 -0.5581  1.7615  2.8208
 9234SOL     OW28895   8.469   6.355   3.975 -0.1140  0.5349  0.0318
 9234SOL    HW128896   8.448   6.373   3.883  0.5485 -0.8083 -0.4249
 9234SOL    HW228897   8.426   6.271   3.992  0.0578  0.6108  0.8424
 9235SOL     OW28898   2.123   7.790   0.529 -0.0264 -0.2155 -0.5578
 9235SOL    HW128899   2.194   7.854   0.531  0.7261 -1.0602  0.7224
 9235SOL    HW228900   2.095   7.782   0.620 -2.3499  0.6960 -1.0967
 9236SOL     OW28901   4.567   0.091   7.948  0.5480  0.1551 -0.1312
 9236SOL    HW128902   4.540  -0.000   7.933  1.3803  0.1349 -1.6811
 9236SOL    HW228903   4.498   0.127   8.004 -1.0656 -0.7668 -1.4365
 9237SOL     OW28904   7.427   7.220   4.170  0.1192 -0.1169  0.1478
 9237SOL    HW128905   7.510   7.255   4.203 -2.2115  2.2657  4.3592
 9237SOL    HW228906   7.402   7.153   4.233 -1.4471 -0.3623 -0.6883
 9238SOL     OW28907   2.422   2.434   6.517  0.3682  0.0014 -0.2733
 9238SOL    HW128908   2.428   2.470   6.428 -0.1332  0.9021  0.0369
 9238SOL    HW228909   2.459   2.503   6.573 -2.1216  0.8352  0.5051
 9239SOL     OW28910   6.238   2.821   5.703  1.0580 -0.3046 -0.5009
 9239SOL    HW128911   6.151   2.839   5.668  1.4043  0.3039 -1.0819
 9239SOL    HW228912   6.246   2.726   5.698  0.2635 -0.4050 -0.0262
 9240SOL     OW28913   2.132   8.556   2.717  0.4477 -0.0807  0.0759
 9240SOL    HW128914   2.188   8.487   2.754  0.7794  0.3820  0.4493
 9240SOL    HW228915   2.048   8.513   2.703 -0.1485  0.0623  2.7621
 9241SOL     OW28916   2.966   4.061   3.499  0.3004  0.4460  0.2730
 9241SOL    HW128917   2.980   4.126   3.567  1.9929  1.1284 -0.6586
 9241SOL    HW228918   2.987   3.977   3.540  0.3206  0.7414  0.8712
 9242SOL     OW28919   0.356   4.475   6.024  0.2620 -0.3985 -0.7164
 9242SOL    HW128920   0.444   4.474   5.985  0.6641 -0.6819  0.1607
 9242SOL    HW228921   0.371   4.500   6.115 -0.7183  0.7767 -0.8551
 9243SOL     OW28922   6.145   1.202   6.898 -0.7434  0.3335 -0.4087
 9243SOL    HW128923   6.090   1.263   6.849 -1.5205 -1.0486 -1.3065
 9243SOL    HW228924   6.148   1.123   6.844  1.1557 -0.0530  0.1851
 9244SOL     OW28925   3.038   5.471   2.089  0.3114  0.0400 -0.1307
 9244SOL    HW128926   3.069   5.437   2.173 -2.1060  0.5438  1.0562
 9244SOL    HW228927   3.114   5.466   2.031  1.8011 -1.1944  1.8158
 9245SOL     OW28928   6.420   4.724   2.403 -0.4755 -0.1006  0.1267
 9245SOL    HW128929   6.456   4.703   2.317 -1.6304 -1.5806 -0.0422
 9245SOL    HW228930   6.393   4.639   2.439 -1.0862  0.6224  1.4576
 9246SOL     OW28931   3.757   3.791   2.115 -0.0314 -0.1286  0.5060
 9246SOL    HW128932   3.708   3.717   2.079 -2.2943  1.6496 -0.2874
 9246SOL    HW228933   3.695   3.864   2.114  2.1136  1.8224  1.1991
 9247SOL     OW28934   0.094   4.752   0.282 -0.1996  0.1772 -0.2647
 9247SOL    HW128935   0.056   4.764   0.368  0.6119  0.0219  0.1269
 9247SOL    HW228936   0.020   4.732   0.225 -0.7665  0.5362  0.3453
 9248SOL     OW28937   1.740   3.779   2.674  0.0660  0.0470  0.4541
 9248SOL    HW128938   1.690   3.861   2.674 -2.6971 -1.5057  1.1131
 9248SOL    HW228939   1.829   3.805   2.698 -0.7868  2.7840  1.0156
 9249SOL     OW28940   2.219   4.329   0.381  0.1830  0.0632  0.3036
 9249SOL    HW128941   2.188   4.240   0.363  3.1035 -0.7627 -1.1289
 9249SOL    HW228942   2.178   4.383   0.314  0.1698 -0.5940 -0.2221
 9250SOL     OW28943   0.926   5.954   1.543  0.1763 -0.5461  0.6578
 9250SOL    HW128944   0.957   6.038   1.509 -0.9652 -0.3426  0.0965
 9250SOL    HW228945   0.844   5.975   1.588  0.6411 -1.1371  1.8296
 9251SOL     OW28946   7.979   2.238   3.028 -0.1958  0.2214  0.0087
 9251SOL    HW128947   7.951   2.255   3.118 -0.5894 -0.1603 -0.0350
 9251SOL    HW228948   8.072   2.218   3.036  0.1905  1.9124  0.1034
 9252SOL     OW28949   0.737   3.314   6.683 -0.2103  0.0784 -0.5722
 9252SOL    HW128950   0.804   3.358   6.736 -0.0170 -0.2564 -0.5333
 9252SOL    HW228951   0.760   3.221   6.688 -0.8487 -0.0697 -0.3317
 9253SOL     OW28952   5.734   0.818   5.231 -0.0539 -0.2415  0.2444
 9253SOL    HW128953   5.732   0.912   5.252  0.6607  0.1062 -1.1156
 9253SOL    HW228954   5.790   0.780   5.298  0.8646  0.5646 -0.0321
 9254SOL     OW28955   8.344   7.463   2.494  0.6117 -0.1952 -0.3065
 9254SOL    HW128956   8.261   7.422   2.519  0.8631  0.3552  1.6121
 9254SOL    HW228957   8.411   7.406   2.529  0.9633  1.6125  2.2417
 9255SOL     OW28958   2.858   8.401   5.054 -0.0584  0.6804  0.1145
 9255SOL    HW128959   2.859   8.493   5.028 -1.6695  0.0415 -2.6056
 9255SOL    HW228960   2.949   8.373   5.046  0.3565  1.8762  0.4337
 9256SOL     OW28961   6.683   7.485   1.814 -0.4037 -0.3792 -0.3689
 9256SOL    HW128962   6.749   7.419   1.793 -0.4617 -0.7682  0.6228
 9256SOL    HW228963   6.645   7.508   1.729 -0.0022 -1.2167 -0.7915
 9257SOL     OW28964   4.408   7.678   5.695 -0.3062  0.1558  0.1723
 9257SOL    HW128965   4.477   7.729   5.738 -0.0352  0.6451 -0.8043
 9257SOL    HW228966   4.365   7.741   5.636 -1.3108 -0.2493  0.4420
 9258SOL     OW28967   3.682   3.273   5.670  0.1512  0.2092 -0.4964
 9258SOL    HW128968   3.733   3.219   5.730 -1.4129 -0.8514 -0.0558
 9258SOL    HW228969   3.706   3.363   5.693  1.4353 -0.2418  0.0072
 9259SOL     OW28970   8.593   8.133   2.005 -0.2724  0.3884 -0.1725
 9259SOL    HW128971   8.644   8.078   2.065  1.2671 -0.4833 -2.1464
 9259SOL    HW228972   8.515   8.082   1.986 -0.0616  0.0005 -0.0223
 9260SOL     OW28973   0.375   0.878   7.049 -0.1263  0.2222 -0.2563
 9260SOL    HW128974   0.417   0.792   7.056  0.1510  0.3820  0.1045
 9260SOL    HW228975   0.282   0.860   7.066 -0.3521 -0.2504 -1.8232
 9261SOL     OW28976   5.517   4.342   4.382  0.0173 -0.1601 -0.7000
 9261SOL    HW128977   5.470   4.347   4.299 -0.2093  0.6527 -0.5262
 9261SOL    HW228978   5.464   4.392   4.444  0.1221 -0.8505 -0.0221
 9262SOL     OW28979   8.604   6.653   7.832 -0.2789  0.0707  0.7927
 9262SOL    HW128980   8.636   6.621   7.748 -0.1061  1.3297  0.3626
 9262SOL    HW228981   8.538   6.589   7.859  1.1788 -1.5194  0.7567
 9263SOL     OW28982   5.428   5.193   2.296 -0.5678  0.8019  0.3643
 9263SOL    HW128983   5.442   5.167   2.387 -1.4901  0.3361  0.3834
 9263SOL    HW228984   5.334   5.188   2.283 -0.6631  2.7276 -0.0711
 9264SOL     OW28985   5.857   1.763   6.207 -0.1395 -0.1132  0.4688
 9264SOL    HW128986   5.784   1.822   6.188  0.9066  0.2239 -3.3072
 9264SOL    HW228987   5.833   1.721   6.290 -3.6901  1.3046  0.3360
 9265SOL     OW28988   0.071   1.921   7.931 -0.1714  0.0782  0.5757
 9265SOL    HW128989   0.106   1.886   8.013 -2.5436 -0.0926  1.5917
 9265SOL    HW228990   0.006   1.985   7.958 -0.8958  0.1458 -1.1931
 9266SOL     OW28991   0.993   8.136   7.774  0.3702  0.6658 -0.3561
 9266SOL    HW128992   1.059   8.067   7.785 -0.0183  0.4182  0.4338
 9266SOL    HW228993   0.964   8.125   7.683  0.4955 -0.0512 -0.3207
 9267SOL     OW28994   3.301   2.961   2.729 -0.5252  0.1742 -0.3814
 9267SOL    HW128995   3.320   2.965   2.635 -1.0654 -1.7006 -0.6269
 9267SOL    HW228996   3.210   2.933   2.733 -0.3954 -0.1190  0.6980
 9268SOL     OW28997   7.719   6.171   1.982  0.0346  0.6007 -0.5186
 9268SOL    HW128998   7.734   6.240   2.047 -0.3498  1.3850 -1.2335
 9268SOL    HW228999   7.802   6.166   1.933  0.5129 -0.3702  0.3587
 9269SOL     OW29000   2.764   1.210   3.648  0.5303  0.3068  0.3344
 9269SOL    HW129001   2.687   1.259   3.676 -0.1898 -0.6797  0.0796
 9269SOL    HW229002   2.771   1.228   3.554 -0.2726 -0.7965  0.0513
 9270SOL     OW29003   1.927   1.216   7.716 -0.3514  0.2804  0.1305
 9270SOL    HW129004   2.012   1.210   7.758 -1.3974  0.2225  2.3899
 9270SOL    HW229005   1.921   1.307   7.686 -0.5999  1.1624  2.6230
 9271SOL     OW29006   1.171   2.556   8.205 -0.0021 -1.0113 -0.4008
 9271SOL    HW129007   1.166   2.461   8.211 -1.5495 -0.9351 -0.0893
 9271SOL    HW229008   1.128   2.587   8.285  2.9894 -0.0134  0.9767
 9272SOL     OW29009   6.180   7.401   0.268  0.3569  0.4178 -0.6961
 9272SOL    HW129010   6.122   7.454   0.323 -0.0069 -1.5865  0.9502
 9272SOL    HW229011   6.123   7.364   0.201  0.5192  1.6105 -1.5297
 9273SOL     OW29012   5.303   0.054   1.500  0.5009  0.0935 -0.1942
 9273SOL    HW129013   5.217   0.075   1.465 -1.3470  1.2852  4.3168
 9273SOL    HW229014   5.305  -0.042   1.503 -0.4662  0.0450 -0.7627
 9274SOL     OW29015   1.470   8.409   1.557 -0.3257  0.1713 -0.4398
 9274SOL    HW129016   1.529   8.365   1.619  0.2877  1.6063  0.0629
 9274SOL    HW229017   1.425   8.474   1.611 -2.2400 -0.7445 -0.8739
 9275SOL     OW29018   0.531   8.326   6.825  0.0740  0.1380  0.0285
 9275SOL    HW129019   0.562   8.239   6.850  0.0324 -0.0316 -0.4985
 9275SOL    HW229020   0.435   8.320   6.832  0.1173  0.5685  1.3557
 9276SOL     OW29021   4.117   5.634   5.139  0.1247 -0.4390 -0.0508
 9276SOL    HW129022   4.165   5.640   5.056 -0.6188 -2.5892 -0.7138
 9276SOL    HW229023   4.168   5.572   5.192  0.7016  1.0625  1.2455
 9277SOL     OW29024   1.531   4.035   1.415  0.6658 -0.3225  0.2316
 9277SOL    HW129025   1.595   4.054   1.484  1.8236  0.0001 -0.8890
 9277SOL    HW229026   1.479   3.963   1.449  0.6733  0.3571  1.7694
 9278SOL     OW29027   6.617   6.370   5.649  0.1833  0.2305 -0.0001
 9278SOL    HW129028   6.530   6.370   5.609 -0.1947  2.6641  0.6301
 9278SOL    HW229029   6.675   6.404   5.581  0.8757 -2.2023 -0.7140
 9279SOL     OW29030   7.140   3.296   6.973  0.0685  0.3122 -0.2590
 9279SOL    HW129031   7.151   3.204   6.947 -0.2927  0.4048 -0.7633
 9279SOL    HW229032   7.215   3.341   6.935 -0.9341  0.6097 -2.0270
 9280SOL     OW29033   3.990   7.465   3.515 -0.3097 -0.7260  0.4120
 9280SOL    HW129034   3.983   7.390   3.575 -0.1274 -1.0160  0.0711
 9280SOL    HW229035   4.084   7.479   3.504 -0.2980  0.6475  1.8250
 9281SOL     OW29036   7.638   2.600   6.747  0.2413 -0.6804  0.1429
 9281SOL    HW129037   7.596   2.542   6.811  0.1572 -1.5893 -0.7084
 9281SOL    HW229038   7.568   2.656   6.716  0.3738  0.0725  1.1558
 9282SOL     OW29039   5.207   4.095   8.398  0.9923  0.6826  0.3899
 9282SOL    HW129040   5.141   4.160   8.373 -0.2957 -0.3044  1.0653
 9282SOL    HW229041   5.258   4.138   8.466  2.5347  2.2604 -1.6487
 9283SOL     OW29042   3.572   6.560   2.481  0.0767  0.5472  0.0999
 9283SOL    HW129043   3.658   6.528   2.454  0.1069 -0.8187  1.6409
 9283SOL    HW229044   3.565   6.534   2.573 -3.3159 -2.3806 -0.7758
 9284SOL     OW29045   4.862   6.944   6.658  0.3573  0.1442 -0.6475
 9284SOL    HW129046   4.848   6.849   6.665 -0.3800  0.3074  0.2074
 9284SOL    HW229047   4.871   6.960   6.564 -1.6183 -0.4916 -0.9722
 9285SOL     OW29048   2.226   6.212   4.089  0.0978 -0.1715  0.0664
 9285SOL    HW129049   2.181   6.223   4.005 -0.5713 -0.8531  0.3212
 9285SOL    HW229050   2.301   6.156   4.069  0.6440  0.6754 -0.2961
 9286SOL     OW29051   8.304   2.097   6.304  0.1821 -0.0414 -0.2674
 9286SOL    HW129052   8.263   2.029   6.250  0.0640  0.6291 -1.0514
 9286SOL    HW229053   8.290   2.068   6.394  1.4117 -1.7912 -0.5922
 9287SOL     OW29054   6.114   5.251   6.606 -0.1603 -0.5384  0.3852
 9287SOL    HW129055   6.069   5.336   6.612  1.8870  0.6553 -0.0624
 9287SOL    HW229056   6.077   5.210   6.528 -0.0288  0.7083 -0.3647
 9288SOL     OW29057   8.406   7.039   6.705 -0.0211  0.2781  0.0270
 9288SOL    HW129058   8.313   7.036   6.729  0.3955 -0.1387  1.6826
 9288SOL    HW229059   8.413   7.115   6.647 -1.4929 -0.0441 -0.6433
 9289SOL     OW29060   5.964   2.502   5.705  0.1546 -0.0757  0.0965
 9289SOL    HW129061   5.900   2.556   5.659  0.7557  1.4436  0.9745
 9289SOL    HW229062   5.933   2.498   5.795  1.3379  0.8458  0.5832
 9290SOL     OW29063   1.045   8.085   0.724 -0.0095 -0.1182  0.4414
 9290SOL    HW129064   1.057   8.178   0.704  0.7633  0.0398  1.5501
 9290SOL    HW229065   1.032   8.044   0.639 -0.3112  0.9964 -0.0712
 9291SOL     OW29066   0.542   0.384   4.764  0.1673  0.1430  0.8415
 9291SOL    HW129067   0.520   0.337   4.683  0.8859 -0.9111  1.2310
 9291SOL    HW229068   0.472   0.360   4.825 -0.2262  0.7149  0.6129
 9292SOL     OW29069   5.754   6.269   6.216  1.0443 -0.0933 -0.1774
 9292SOL    HW129070   5.807   6.212   6.161 -0.2085 -2.8340  1.2531
 9292SOL    HW229071   5.664   6.246   6.194  0.5096  0.5773  1.1970
 9293SOL     OW29072   8.185   3.468   8.537  0.6574 -0.2354 -0.3605
 9293SOL    HW129073   8.203   3.380   8.504 -0.3257 -0.8099  0.5652
 9293SOL    HW229074   8.131   3.454   8.615  0.0126  1.2048 -0.5155
 9294SOL     OW29075   1.744   4.866   7.140 -0.2741  0.5823  0.3674
 9294SOL    HW129076   1.786   4.942   7.100  0.6847  0.2111  0.6429
 9294SOL    HW229077   1.813   4.826   7.192  0.1908 -2.2365 -2.1360
 9295SOL     OW29078   6.516   7.210   1.836  0.3340  0.2991  0.0370
 9295SOL    HW129079   6.606   7.224   1.865 -0.8154  1.0391  3.8609
 9295SOL    HW229080   6.474   7.295   1.848 -2.0301 -1.1396  3.8881
 9296SOL     OW29081   1.631   7.476   8.375 -0.1138 -0.1249 -0.1673
 9296SOL    HW129082   1.712   7.526   8.367 -1.1604  1.5257 -0.9214
 9296SOL    HW229083   1.623   7.430   8.292  0.8439 -1.6298  0.5227
 9297SOL     OW29084   2.322   6.088   0.723 -0.2577 -0.4771 -0.0963
 9297SOL    HW129085   2.364   6.067   0.640 -0.2039  0.0325 -0.1998
 9297SOL    HW229086   2.258   6.017   0.736  0.1345 -0.8716 -0.2827
 9298SOL     OW29087   0.820   2.449   8.138  0.2147  0.1271  0.1144
 9298SOL    HW129088   0.882   2.380   8.115  0.3788  0.8556 -1.7734
 9298SOL    HW229089   0.735   2.413   8.114  0.3044  0.5769 -0.9085
 9299SOL     OW29090   1.684   3.549   0.474 -0.1141 -0.2548  0.2004
 9299SOL    HW129091   1.617   3.592   0.421 -0.1876  2.3710  2.2156
 9299SOL    HW229092   1.764   3.555   0.422 -0.0502  2.7696  0.4911
 9300SOL     OW29093   6.751   7.260   2.892 -0.2128 -0.3538  0.3492
 9300SOL    HW129094   6.685   7.286   2.828  1.0475 -2.5903 -2.0307
 9300SOL    HW229095   6.796   7.342   2.914 -1.2617  0.6225 -0.9511
 9301SOL     OW29096   1.208   2.614   7.585  0.7564 -0.3912 -0.1888
 9301SOL    HW129097   1.266   2.668   7.638  1.8308 -1.1164 -0.5931
 9301SOL    HW229098   1.139   2.587   7.646  0.9441  0.3193  0.3564
 9302SOL     OW29099   8.109   7.634   7.007  0.2403  0.6253  0.5114
 9302SOL    HW129100   8.026   7.586   7.002  1.0512 -0.6890 -1.1515
 9302SOL    HW229101   8.138   7.622   7.098 -0.8401  0.1941  0.8217
 9303SOL     OW29102   6.865   4.466   5.177  0.0142  0.3865  0.6221
 9303SOL    HW129103   6.860   4.554   5.142  2.1217  0.9900  1.6453
 9303SOL    HW229104   6.935   4.470   5.243  0.4819 -2.1335  0.3930
 9304SOL     OW29105   5.127   0.371   1.830  0.2491 -1.0651 -0.3606
 9304SOL    HW129106   5.127   0.410   1.918 -0.1822  1.6647 -1.4773
 9304SOL    HW229107   5.040   0.332   1.821 -0.0032 -0.6283  0.1348
 9305SOL     OW29108   3.000   1.607   1.869 -0.3798  0.3253 -0.1712
 9305SOL    HW129109   2.950   1.635   1.793 -0.3558 -1.5583 -0.9135
 9305SOL    HW229110   3.073   1.670   1.873 -0.7244  0.8308 -1.3137
 9306SOL     OW29111   1.024   5.371   8.574  0.2382  0.5007  0.1450
 9306SOL    HW129112   0.960   5.316   8.619 -0.5955  0.3638 -1.1686
 9306SOL    HW229113   0.995   5.461   8.592 -0.4366  0.4372 -0.5755
 9307SOL     OW29114   3.987   3.282   1.127  0.0277  0.3097  0.8803
 9307SOL    HW129115   4.002   3.374   1.103 -1.9555  0.4432 -0.1225
 9307SOL    HW229116   3.964   3.285   1.220 -2.1310  1.1692  0.3755
 9308SOL     OW29117   5.513   6.431   2.583 -0.2513  0.2714 -0.4082
 9308SOL    HW129118   5.529   6.480   2.503 -0.3652 -0.7752 -1.0963
 9308SOL    HW229119   5.419   6.417   2.584 -0.1669 -0.3333 -0.4780
 9309SOL     OW29120   4.634   2.869   0.064  0.8346 -0.1026 -0.3371
 9309SOL    HW129121   4.585   2.820   0.131 -1.9460  1.1343 -1.3068
 9309SOL    HW229122   4.639   2.958   0.098  2.2119 -0.1157 -0.4289
 9310SOL     OW29123   8.452   2.886   4.690 -0.0645  0.1438  0.2700
 9310SOL    HW129124   8.536   2.917   4.655 -0.0214 -0.0000  0.2465
 9310SOL    HW229125   8.387   2.941   4.646  0.0284  0.3915  0.4401
 9311SOL     OW29126   0.949   7.208   1.731  0.0306  0.0251 -1.0206
 9311SOL    HW129127   0.868   7.202   1.781  1.1805 -3.3999  0.7525
 9311SOL    HW229128   0.994   7.285   1.767 -0.7592 -0.2828  0.7177
 9312SOL     OW29129   8.573   3.947   5.158 -0.2430  0.3075  0.1298
 9312SOL    HW129130   8.599   3.858   5.134 -1.7670 -0.3097  0.6504
 9312SOL    HW229131   8.641   4.003   5.120  1.3610 -1.1395  0.7193
 9313SOL     OW29132   3.735   0.481   3.226  0.0422 -0.1083 -0.5027
 9313SOL    HW129133   3.642   0.465   3.246 -0.0213  0.3586 -0.4057
 9313SOL    HW229134   3.763   0.402   3.180  0.0235 -0.9651  0.8851
 9314SOL     OW29135   0.043   6.628   2.565  0.3584 -0.5128  0.6080
 9314SOL    HW129136   0.077   6.568   2.630  0.3029 -0.1026  1.0185
 9314SOL    HW229137   0.016   6.705   2.614 -1.7881 -1.0695  0.3977
 9315SOL     OW29138   3.095   3.967   5.330  0.3210  0.6976  0.0738
 9315SOL    HW129139   3.152   3.933   5.399  3.0645 -0.4847 -2.5259
 9315SOL    HW229140   3.016   3.914   5.335  1.9236 -1.8707  0.1443
 9316SOL     OW29141   5.537   2.682   1.795 -1.1380 -0.4452  0.0945
 9316SOL    HW129142   5.618   2.733   1.801 -1.5896  0.1407  2.3081
 9316SOL    HW229143   5.566   2.594   1.773 -0.0274  0.0306 -0.4438
 9317SOL     OW29144   4.220   6.564   7.619 -0.3685  0.3045  0.2705
 9317SOL    HW129145   4.214   6.497   7.687  0.8524 -2.3703 -2.0371
 9317SOL    HW229146   4.131   6.571   7.584 -0.1946 -1.6528 -0.7121
 9318SOL     OW29147   2.360   7.501   2.832  0.2864  0.3466 -0.2188
 9318SOL    HW129148   2.337   7.574   2.889 -0.8161  0.8979 -1.3130
 9318SOL    HW229149   2.278   7.480   2.786  0.6957 -1.2693 -0.2814
 9319SOL     OW29150   0.569   5.665   5.519 -0.4171  0.0399  0.0522
 9319SOL    HW129151   0.488   5.676   5.470  1.1243  2.2017 -2.2974
 9319SOL    HW229152   0.582   5.749   5.562  1.5442  0.5113 -1.3306
 9320SOL     OW29153   5.049   3.437   8.441  0.3706 -0.0902  0.6346
 9320SOL    HW129154   5.137   3.473   8.426 -0.1303  1.5769  1.5217
 9320SOL    HW229155   5.058   3.344   8.418  1.9772  0.3445 -0.7193
 9321SOL     OW29156   2.919   2.044   4.167  0.1737 -0.1626 -0.2093
 9321SOL    HW129157   2.947   2.097   4.093  0.4026 -0.3360 -0.2486
 9321SOL    HW229158   2.887   2.106   4.232 -0.7300 -0.0445 -0.7461
 9322SOL     OW29159   5.589   3.575   4.466 -0.1866  0.0865 -0.0764
 9322SOL    HW129160   5.577   3.657   4.515  1.6333  0.2725  0.1530
 9322SOL    HW229161   5.551   3.593   4.380  2.9221  2.4447 -1.1784
 9323SOL     OW29162   3.871   6.971   0.069  0.0185  0.1170  0.2623
 9323SOL    HW129163   3.934   6.947   0.137 -1.2733  0.6976  1.7045
 9323SOL    HW229164   3.906   6.931  -0.011  3.1917  1.9017  0.6022
 9324SOL     OW29165   1.846   3.722   6.071 -0.1228  0.1622 -0.3470
 9324SOL    HW129166   1.914   3.732   6.137 -0.2234 -1.0499 -0.0348
 9324SOL    HW229167   1.864   3.637   6.031 -1.0354  0.1393 -0.7378
 9325SOL     OW29168   4.685   6.586   7.088  0.5782 -0.5054  0.1120
 9325SOL    HW129169   4.691   6.632   7.172  1.6110 -1.3997  0.5536
 9325SOL    HW229170   4.592   6.592   7.065  0.4355  0.5584  0.8436
 9326SOL     OW29171   2.318   1.067   7.034  0.5339 -0.0347  0.8189
 9326SOL    HW129172   2.277   1.027   6.957  0.4914  1.3989  0.0703
 9326SOL    HW229173   2.372   1.137   6.999  0.3870  0.7539  2.1123
 9327SOL     OW29174   2.334   5.782   6.374 -0.0262  0.2007 -0.6466
 9327SOL    HW129175   2.396   5.837   6.422  0.2032  0.4525 -1.2188
 9327SOL    HW229176   2.349   5.804   6.282 -1.2885  0.6167 -0.7798
 9328SOL     OW29177   5.394   6.228   4.359  0.1428  0.0251  0.1754
 9328SOL    HW129178   5.470   6.211   4.415  0.1977 -0.5303 -0.0640
 9328SOL    HW229179   5.325   6.255   4.420  0.0489 -1.0952  0.5790
 9329SOL     OW29180   5.192   1.729   3.625 -0.3112 -0.1984 -0.0875
 9329SOL    HW129181   5.231   1.679   3.553 -1.9228 -1.8034  0.0681
 9329SOL    HW229182   5.171   1.814   3.587 -1.5360 -1.1604 -1.7049
 9330SOL     OW29183   5.277   3.360   3.911  0.1769 -0.4222 -0.1206
 9330SOL    HW129184   5.350   3.387   3.967  0.2979 -0.7108 -0.1355
 9330SOL    HW229185   5.316   3.350   3.824 -0.5131  2.6648 -0.9114
 9331SOL     OW29186   3.915   4.520   2.073  0.2660  0.4715  0.1887
 9331SOL    HW129187   3.868   4.501   2.154 -0.2278  0.8254 -0.0120
 9331SOL    HW229188   4.008   4.507   2.096  0.1178  0.3620  0.7484
 9332SOL     OW29189   3.873   5.538   7.891 -0.3025 -0.0402  0.6477
 9332SOL    HW129190   3.925   5.536   7.810 -2.4493  0.7330 -0.8502
 9332SOL    HW229191   3.913   5.608   7.942  1.9755 -1.4639  0.9680
 9333SOL     OW29192   1.000   7.167   2.135 -0.1417 -0.3776 -0.1105
 9333SOL    HW129193   1.006   7.124   2.049  1.5600 -0.4083 -0.0045
 9333SOL    HW229194   1.065   7.237   2.132 -0.6680  0.1739  0.8633
 9334SOL     OW29195   5.078   0.780   1.124 -0.0683 -0.2566 -0.0623
 9334SOL    HW129196   5.003   0.752   1.176 -1.2257 -2.0163 -2.4818
 9334SOL    HW229197   5.132   0.702   1.114  1.8029  0.8125  1.0339
 9335SOL     OW29198   1.889   8.575   4.616 -0.2866 -0.8143 -0.0734
 9335SOL    HW129199   1.942   8.550   4.541 -0.2438 -1.1543  0.0695
 9335SOL    HW229200   1.806   8.605   4.577  0.2047  0.2585 -0.3270
 9336SOL     OW29201   0.740   3.260   0.759 -0.4883 -0.1711  0.3325
 9336SOL    HW129202   0.716   3.340   0.713 -1.1065 -0.1011  0.7602
 9336SOL    HW229203   0.668   3.199   0.742 -1.0615  0.0699  1.7015
 9337SOL     OW29204   3.147   2.549   3.775 -0.5529  0.2518  0.2830
 9337SOL    HW129205   3.075   2.611   3.767 -0.1733  0.7383  0.5910
 9337SOL    HW229206   3.131   2.503   3.857 -0.2129  0.7670  0.6503
 9338SOL     OW29207   8.219   3.603   6.268  0.1511 -0.0128 -0.3501
 9338SOL    HW129208   8.280   3.666   6.306 -1.4526  0.3065  1.9680
 9338SOL    HW229209   8.212   3.628   6.176  1.9467  1.1838 -0.2016
 9339SOL     OW29210   2.965   6.083   5.107 -0.1309  0.2145  0.5437
 9339SOL    HW129211   3.016   6.062   5.185 -0.2073 -0.0382  0.5263
 9339SOL    HW229212   2.873   6.077   5.135 -0.1469  1.0398  0.6707
 9340SOL     OW29213   7.575   4.438   6.143  0.6117 -0.2217 -0.3570
 9340SOL    HW129214   7.632   4.443   6.220  0.9095 -1.5200 -0.4848
 9340SOL    HW229215   7.496   4.486   6.169  0.6400 -0.7828  0.8302
 9341SOL     OW29216   6.468   7.127   6.899  0.4304  0.0643  0.1309
 9341SOL    HW129217   6.551   7.101   6.938  2.3586  3.7601 -1.0021
 9341SOL    HW229218   6.468   7.086   6.813  2.0568  1.4321 -0.5749
 9342SOL     OW29219   3.149   2.621   4.267  0.1512  0.1097  0.3033
 9342SOL    HW129220   3.096   2.643   4.344  0.7990 -0.2932  0.8676
 9342SOL    HW229221   3.237   2.607   4.301  0.3837 -0.3775 -0.4766
 9343SOL     OW29222   4.932   1.436   4.920 -0.1367 -0.6122 -0.3968
 9343SOL    HW129223   4.977   1.370   4.868 -0.1822  0.6460 -2.1236
 9343SOL    HW229224   4.846   1.444   4.878 -0.1855  0.4310 -0.1108
 9344SOL     OW29225   0.726   0.573   4.680 -0.0089 -0.5724  0.2045
 9344SOL    HW129226   0.725   0.617   4.765  2.1633 -1.5957  0.8497
 9344SOL    HW229227   0.677   0.492   4.694  1.6381 -1.4905  1.0117
 9345SOL     OW29228   7.762   2.986   7.524  0.3648  0.0034 -0.3603
 9345SOL    HW129229   7.728   2.969   7.436 -0.9564  0.2295  0.0829
 9345SOL    HW229230   7.854   3.006   7.510 -0.4750  3.4071 -2.1105
 9346SOL     OW29231   7.063   6.559   5.580 -0.4607 -0.1845  0.2552
 9346SOL    HW129232   7.125   6.618   5.537 -0.7760  0.0342  0.0963
 9346SOL    HW229233   7.067   6.582   5.673 -2.2384  1.6748 -0.0560
 9347SOL     OW29234   1.778   4.704   3.588  0.1256 -0.4639  0.8781
 9347SOL    HW129235   1.824   4.786   3.606 -1.3023  0.8062 -0.8067
 9347SOL    HW229236   1.842   4.651   3.540  0.4129  0.6007  0.0241
 9348SOL     OW29237   6.867   7.238   1.018  0.1113  0.0313 -0.5414
 9348SOL    HW129238   6.797   7.303   1.017  1.2792  1.3301 -0.1242
 9348SOL    HW229239   6.884   7.223   1.111  0.0724 -0.6502 -0.6369
 9349SOL     OW29240   4.086   3.037   0.482  0.1976  0.1616 -0.5810
 9349SOL    HW129241   4.074   2.956   0.433  1.4399 -0.3551 -0.0730
 9349SOL    HW229242   4.023   3.098   0.444 -1.0351 -1.1519 -0.7137
 9350SOL     OW29243   5.153   3.908   8.593 -0.5612  0.3039  0.3473
 9350SOL    HW129244   5.234   3.860   8.605 -1.3224 -0.9897  0.4655
 9350SOL    HW229245   5.175   3.978   8.531  0.5865 -0.1418  0.2360
 9351SOL     OW29246   3.953   7.472   3.002  0.6917  0.4650 -0.2747
 9351SOL    HW129247   4.042   7.489   2.971  0.6130  2.5418  0.5358
 9351SOL    HW229248   3.902   7.547   2.973 -0.4390  0.1088  0.7081
 9352SOL     OW29249   2.116   2.872   5.156  0.1168  0.6947  0.2434
 9352SOL    HW129250   2.132   2.865   5.250  1.7551  2.2193  0.1385
 9352SOL    HW229251   2.060   2.949   5.147  1.7900  1.9433 -0.1112
 9353SOL     OW29252   3.557   5.846   5.581  0.3652 -0.2845 -0.0437
 9353SOL    HW129253   3.480   5.790   5.595 -0.4633  0.5244 -1.2011
 9353SOL    HW229254   3.629   5.785   5.567  0.0484 -1.0695  1.4647
 9354SOL     OW29255   4.949   7.915   7.226 -0.9645  0.2524  0.9856
 9354SOL    HW129256   4.954   7.908   7.322 -0.5652  1.4829  1.0615
 9354SOL    HW229257   4.948   7.824   7.196  0.0786 -0.1484  2.1000
 9355SOL     OW29258   8.323   1.874   3.255 -1.1364 -0.4843  0.0485
 9355SOL    HW129259   8.414   1.882   3.284 -0.5245  0.7824 -1.9850
 9355SOL    HW229260   8.285   1.961   3.268 -2.0713 -0.9942  0.8517
 9356SOL     OW29261   6.065   6.184   1.762  0.3441  0.3579  0.1303
 9356SOL    HW129262   6.160   6.190   1.753  0.0796  1.8790 -2.7049
 9356SOL    HW229263   6.035   6.147   1.678 -1.6607  1.6330  0.2073
 9357SOL     OW29264   2.862   3.023   1.062 -0.0138 -0.2399 -0.7028
 9357SOL    HW129265   2.911   3.057   1.137  0.4952 -1.9276 -0.2269
 9357SOL    HW229266   2.774   3.008   1.096  0.0990 -0.5900 -0.5658
 9358SOL     OW29267   2.193   0.143   2.554  0.1712  0.2586 -0.2582
 9358SOL    HW129268   2.199   0.056   2.593  0.5430  0.5397  0.3201
 9358SOL    HW229269   2.099   0.163   2.555  0.1666  0.2306  0.4264
 9359SOL     OW29270   7.192   1.745   0.699  0.3274  0.4619 -0.1612
 9359SOL    HW129271   7.132   1.752   0.773  1.6415 -0.7186  1.0694
 9359SOL    HW229272   7.250   1.821   0.708  2.0156 -0.9299  1.5170
 9360SOL     OW29273   2.388   7.933   7.994 -0.1327 -0.2784 -0.3924
 9360SOL    HW129274   2.379   7.949   7.900  0.4064  0.0458 -0.3944
 9360SOL    HW229275   2.334   8.000   8.035  0.8423  0.5642 -0.4435
 9361SOL     OW29276   7.362   6.271   1.913  0.0509  0.5211 -0.5540
 9361SOL    HW129277   7.430   6.330   1.947  1.5949 -1.4992  0.0560
 9361SOL    HW229278   7.406   6.187   1.902 -1.9443 -0.4482 -1.8570
 9362SOL     OW29279   4.908   7.659   2.018 -0.1147  0.3832  0.6810
 9362SOL    HW129280   4.827   7.644   1.968 -0.0023  1.5837  0.0759
 9362SOL    HW229281   4.897   7.610   2.099 -0.6792 -0.9280 -0.1685
 9363SOL     OW29282   0.860   0.366   5.321  0.3135 -0.2673  0.3790
 9363SOL    HW129283   0.885   0.432   5.255  3.8196 -1.7531 -0.0081
 9363SOL    HW229284   0.783   0.403   5.363  0.4933  2.8093 -1.6289
 9364SOL     OW29285   2.113   2.875   4.117  0.4831 -0.1948  0.6198
 9364SOL    HW129286   2.200   2.868   4.156  0.3128 -0.4386  0.9659
 9364SOL    HW229287   2.099   2.789   4.076  0.1931 -0.3406  1.0208
 9365SOL     OW29288   3.363   0.327   2.366  0.0986 -0.1607  0.2003
 9365SOL    HW129289   3.326   0.362   2.447  0.4120  1.9432 -0.5071
 9365SOL    HW229290   3.448   0.370   2.357  0.4600 -1.0328 -0.7996
 9366SOL     OW29291   4.017   8.222   1.885 -0.0036 -0.8350 -0.1992
 9366SOL    HW129292   3.990   8.209   1.975  1.6827  0.4077  0.5404
 9366SOL    HW229293   4.074   8.147   1.866  0.8692 -0.3193  0.3152
 9367SOL     OW29294   6.089   3.558   2.079 -0.1634 -0.9035 -0.0321
 9367SOL    HW129295   6.083   3.607   2.162  0.5503 -1.1150  0.1515
 9367SOL    HW229296   6.171   3.509   2.086  0.3105 -0.3308 -1.1849
 9368SOL     OW29297   7.347   2.149   5.833 -0.2385  0.6536  0.3147
 9368SOL    HW129298   7.311   2.196   5.757  2.0923  1.4731 -0.3813
 9368SOL    HW229299   7.389   2.072   5.795 -1.7229 -0.6209  1.1720
 9369SOL     OW29300   7.920   1.661   2.564  0.4503  0.3808 -0.0099
 9369SOL    HW129301   7.968   1.705   2.494 -0.6107 -2.1286 -2.5411
 9369SOL    HW229302   7.984   1.653   2.635  1.9094  2.1824 -1.0205
 9370SOL     OW29303   7.139   4.850   3.896  0.5217 -0.2677 -0.5673
 9370SOL    HW129304   7.157   4.823   3.986 -2.3226 -0.9435 -0.0854
 9370SOL    HW229305   7.105   4.939   3.904  0.3831 -0.2839 -0.9586
 9371SOL     OW29306   8.205   7.789   0.393  0.2241 -0.0636 -0.2979
 9371SOL    HW129307   8.194   7.859   0.329  0.0987 -0.8473 -1.1444
 9371SOL    HW229308   8.297   7.794   0.420 -0.1791  1.5087  0.9461
 9372SOL     OW29309   6.130   1.630   2.534 -0.3107 -0.1010 -0.6246
 9372SOL    HW129310   6.101   1.721   2.540  0.1665  0.0395 -0.3723
 9372SOL    HW229311   6.155   1.607   2.624 -3.1546 -1.4209 -0.0699
 9373SOL     OW29312   2.458   7.569   5.692  0.2421  0.0870 -0.3321
 9373SOL    HW129313   2.522   7.631   5.729  0.0456  0.3020 -0.3491
 9373SOL    HW229314   2.476   7.568   5.598 -0.2209  0.6660 -0.4309
 9374SOL     OW29315   4.674   0.555   6.957 -0.0377  0.1541  0.3420
 9374SOL    HW129316   4.683   0.512   7.042  0.9595 -0.4415 -0.0429
 9374SOL    HW229317   4.701   0.488   6.894 -1.0010  0.5069 -0.4689
 9375SOL     OW29318   8.486   7.032   5.474 -0.4650  0.1427 -0.7791
 9375SOL    HW129319   8.546   7.032   5.549 -0.2551  0.2470 -0.9459
 9375SOL    HW229320   8.454   6.942   5.470  0.0250 -0.0274 -0.9575
 9376SOL     OW29321   4.843   6.928   6.184 -0.6457 -0.5292  0.2295
 9376SOL    HW129322   4.754   6.895   6.190  0.1945 -2.8873  1.3300
 9376SOL    HW229323   4.864   6.957   6.273  0.0880 -1.3162  0.3338
 9377SOL     OW29324   2.712   7.254   0.736  0.7149 -0.2382 -0.4568
 9377SOL    HW129325   2.792   7.236   0.785  0.2568 -1.9980 -0.2665
 9377SOL    HW229326   2.713   7.190   0.664 -0.6617 -0.5409 -0.2413
 9378SOL     OW29327   6.193   3.312   8.232  0.1565  0.1126 -0.0083
 9378SOL    HW129328   6.116   3.324   8.176  0.3468  2.3429  0.1335
 9378SOL    HW229329   6.201   3.394   8.280  0.0363 -1.6562  3.3373
 9379SOL     OW29330   6.023   2.370   2.755 -0.0725 -0.0619  0.1005
 9379SOL    HW129331   5.983   2.421   2.826  1.0450  0.3581  0.4589
 9379SOL    HW229332   6.030   2.432   2.683 -3.0594 -1.0213 -1.1323
 9380SOL     OW29333   7.654   4.367   5.603  0.3649  0.7858 -0.1523
 9380SOL    HW129334   7.576   4.402   5.561  0.4575  1.2098  0.0250
 9380SOL    HW229335   7.713   4.345   5.530 -0.4470 -0.8508 -0.3655
 9381SOL     OW29336   0.845   0.400   1.050 -0.0990  0.3222  0.4066
 9381SOL    HW129337   0.791   0.405   0.972  0.4813  0.0937 -0.0191
 9381SOL    HW229338   0.792   0.440   1.119 -1.0966 -0.5350  0.1657
 9382SOL     OW29339   7.276   6.684   5.452 -0.0094 -0.2829  0.5025
 9382SOL    HW129340   7.332   6.687   5.375  1.1956 -0.9571  1.3232
 9382SOL    HW229341   7.293   6.766   5.498 -3.1562  1.7144 -1.5026
 9383SOL     OW29342   8.466   1.595   4.510  0.0122  0.3153 -0.4320
 9383SOL    HW129343   8.455   1.502   4.529  0.6855  0.6135  1.7790
 9383SOL    HW229344   8.497   1.599   4.420 -0.4488 -1.5621 -0.6982
 9384SOL     OW29345   3.460   4.367   4.580  0.2534 -0.5133 -0.2499
 9384SOL    HW129346   3.367   4.348   4.565  0.0018  0.8215 -0.4514
 9384SOL    HW229347   3.459   4.437   4.645  1.0574  0.8475 -1.6583
 9385SOL     OW29348   8.349   2.969   7.841  0.4272 -0.0461  0.0708
 9385SOL    HW129349   8.335   2.876   7.857 -1.6424 -0.0461 -1.3822
 9385SOL    HW229350   8.422   2.993   7.898 -0.3741 -2.0708  2.0744
 9386SOL     OW29351   3.619   7.059   0.163 -0.6078  0.3000  0.0095
 9386SOL    HW129352   3.706   7.065   0.124 -0.5593  3.2131  0.3256
 9386SOL    HW229353   3.632   7.012   0.245  0.3893 -0.5444 -0.6164
 9387SOL     OW29354   4.583   0.820   8.468  0.1576 -0.2341  0.3074
 9387SOL    HW129355   4.600   0.910   8.498 -3.6952  0.4446  0.9412
 9387SOL    HW229356   4.571   0.770   8.548 -2.1218 -0.2209  0.0469
 9388SOL     OW29357   8.236   6.258   4.321  0.0966 -0.0650 -0.3275
 9388SOL    HW129358   8.191   6.174   4.330  0.8520 -0.6173 -1.4116
 9388SOL    HW229359   8.310   6.253   4.381  1.0412 -0.8357 -1.5157
 9389SOL     OW29360   2.815   4.693   0.751  0.4627 -0.2934  0.3849
 9389SOL    HW129361   2.784   4.623   0.808  0.3112  0.9445  1.8915
 9389SOL    HW229362   2.909   4.699   0.769  0.5304 -0.3010  0.0427
 9390SOL     OW29363   4.218   0.981   4.305 -0.2199  0.1999  0.0915
 9390SOL    HW129364   4.214   0.911   4.371 -0.2101 -1.1077 -1.2328
 9390SOL    HW229365   4.241   1.059   4.354 -1.9038 -0.3592  1.9048
 9391SOL     OW29366   6.525   1.960   3.776  0.0891  0.4167 -0.1788
 9391SOL    HW129367   6.532   2.044   3.730  0.0196  1.6797  1.9461
 9391SOL    HW229368   6.468   1.907   3.720  0.3283  1.6913 -1.7097
 9392SOL     OW29369   1.587   4.217   8.351 -0.1544  0.2623 -0.1017
 9392SOL    HW129370   1.658   4.207   8.414 -0.1638  0.2708 -0.0896
 9392SOL    HW229371   1.513   4.248   8.402  0.1974  1.5141 -0.3104
 9393SOL     OW29372   5.690   0.127   6.238 -0.0304 -0.1037 -0.3419
 9393SOL    HW129373   5.749   0.066   6.282 -1.6869 -2.2138 -0.8901
 9393SOL    HW229374   5.748   0.184   6.188  1.7062  0.2517  1.9322
 9394SOL     OW29375   4.297   7.846   5.520 -0.0582  0.6347  0.5649
 9394SOL    HW129376   4.206   7.854   5.493  0.1113  0.7744  0.0338
 9394SOL    HW229377   4.338   7.794   5.452  0.8854  2.8628 -0.6974
 9395SOL     OW29378   4.097   7.397   6.335 -0.2433 -0.3427  0.0801
 9395SOL    HW129379   4.141   7.476   6.365 -1.3662 -0.0980  1.1500
 9395SOL    HW229380   4.045   7.425   6.260  1.8821 -0.7772 -1.6639
 9396SOL     OW29381   6.822   4.782   1.536  0.3352  0.1069  0.1859
 9396SOL    HW129382   6.859   4.697   1.561  2.8601  0.6539 -1.4576
 9396SOL    HW229383   6.849   4.841   1.606 -0.2146 -0.1298  0.6080
 9397SOL     OW29384   4.444   6.214   7.660 -0.4108  0.7704  0.0187
 9397SOL    HW129385   4.475   6.151   7.595 -0.7694 -1.0398  1.5161
 9397SOL    HW229386   4.352   6.193   7.673 -0.3598  1.1017  1.0633
 9398SOL     OW29387   2.341   3.499   1.730  0.6937 -0.0981 -0.3851
 9398SOL    HW129388   2.273   3.542   1.679  0.4378  0.4576  0.4043
 9398SOL    HW229389   2.412   3.563   1.735  0.0161  0.5843  1.4208
 9399SOL     OW29390   3.274   0.176   0.159  0.4318 -0.6045  0.0260
 9399SOL    HW129391   3.352   0.137   0.199  0.9085  0.7955  0.5202
 9399SOL    HW229392   3.215   0.102   0.145  1.9756 -1.7595 -0.6955
 9400SOL     OW29393   4.475   7.324   1.474  0.2306 -0.3748 -0.8984
 9400SOL    HW129394   4.564   7.326   1.510  0.2346  1.1386 -0.9396
 9400SOL    HW229395   4.462   7.411   1.437 -1.0265 -0.8066 -1.5250
 9401SOL     OW29396   1.615   3.072   2.799 -0.3868 -0.5621 -1.0164
 9401SOL    HW129397   1.673   3.057   2.725 -1.3890 -1.2743 -1.6838
 9401SOL    HW229398   1.615   2.990   2.848  0.8072  0.1201  0.1953
 9402SOL     OW29399   3.254   1.686   8.109 -0.4723  0.0088  0.3390
 9402SOL    HW129400   3.311   1.739   8.053 -0.3916 -1.5918 -1.2004
 9402SOL    HW229401   3.214   1.749   8.169  1.0221  1.5178 -0.1551
 9403SOL     OW29402   2.346   7.417   8.142 -0.1745 -0.0175 -0.4618
 9403SOL    HW129403   2.257   7.424   8.107  0.1656  0.8904 -1.1725
 9403SOL    HW229404   2.399   7.471   8.084  0.7950 -0.2909  0.1486
 9404SOL     OW29405   6.812   5.880   4.512 -0.0813  0.2383 -1.2090
 9404SOL    HW129406   6.743   5.946   4.513 -0.1184  0.1976 -0.0661
 9404SOL    HW229407   6.820   5.852   4.603  2.1075  0.9471 -1.1237
 9405SOL     OW29408   4.333   6.500   4.386  0.6421  0.4024  0.1158
 9405SOL    HW129409   4.372   6.428   4.336  0.7659  0.2789  0.3892
 9405SOL    HW229410   4.407   6.542   4.429  0.5973  0.8400 -0.2283
 9406SOL     OW29411   4.908   6.724   5.810 -0.2362  0.2291  0.3821
 9406SOL    HW129412   4.861   6.670   5.745 -1.3059  1.8787 -0.2785
 9406SOL    HW229413   4.991   6.745   5.768  0.8373 -2.0291  1.2265
 9407SOL     OW29414   4.615   3.021   3.427 -0.3453  0.2979 -0.2765
 9407SOL    HW129415   4.589   3.113   3.424 -0.9240  0.1318 -2.0749
 9407SOL    HW229416   4.709   3.023   3.444 -0.5106  1.1758  0.5875
 9408SOL     OW29417   5.861   7.818   6.859 -0.0149  0.6341 -0.6445
 9408SOL    HW129418   5.914   7.807   6.780  0.6180  0.7469 -0.2505
 9408SOL    HW229419   5.921   7.860   6.922  0.0801 -1.1123  0.5042
 9409SOL     OW29420   4.261   3.060   7.065 -0.6607  0.2117  0.2291
 9409SOL    HW129421   4.322   3.117   7.018  1.1343 -0.4309  1.6362
 9409SOL    HW229422   4.190   3.119   7.092  0.7197  1.6702  0.9093
 9410SOL     OW29423   7.863   8.506   7.507 -0.3030 -0.2228 -0.0567
 9410SOL    HW129424   7.796   8.564   7.544  0.7362 -0.4790  2.3971
 9410SOL    HW229425   7.837   8.419   7.538  0.8886 -0.3801  0.5292
 9411SOL     OW29426   3.123   7.883   6.901  0.0348  0.3400 -0.3364
 9411SOL    HW129427   3.087   7.800   6.869 -0.9425  1.3558 -2.0726
 9411SOL    HW229428   3.056   7.917   6.960 -0.9258  1.2128 -1.8799
 9412SOL     OW29429   2.033   6.302   1.179  0.3661 -0.1003 -0.6028
 9412SOL    HW129430   1.960   6.339   1.130 -0.9355 -1.0922  0.5133
 9412SOL    HW229431   2.053   6.220   1.134 -0.6709 -0.8919  0.3122
 9413SOL     OW29432   5.046   1.612   8.573 -0.3367 -0.0279  0.3037
 9413SOL    HW129433   5.004   1.549   8.514  0.1626 -0.4092  0.3509
 9413SOL    HW229434   5.106   1.559   8.626  0.5410  0.5727 -0.0656
 9414SOL     OW29435   2.585   1.281   0.651  0.4844  0.2028 -0.7859
 9414SOL    HW129436   2.653   1.222   0.683  1.1118  1.0070 -0.5993
 9414SOL    HW229437   2.504   1.231   0.659  0.8098 -0.1271  0.7203
 9415SOL     OW29438   4.371   5.809   7.670  0.0538  0.0562 -0.2397
 9415SOL    HW129439   4.337   5.731   7.712 -0.8424 -1.4823 -3.4873
 9415SOL    HW229440   4.293   5.861   7.649  0.4578  0.6893 -0.2015
 9416SOL     OW29441   5.765   0.380   3.473  0.1166  0.2123 -0.1619
 9416SOL    HW129442   5.722   0.464   3.487 -0.1380 -0.1500  1.5316
 9416SOL    HW229443   5.693   0.317   3.463  0.3027  0.2264 -1.8446
 9417SOL     OW29444   8.130   0.705   3.634  0.1092 -0.1942  0.2369
 9417SOL    HW129445   8.129   0.710   3.538  0.4935  0.2688  0.2492
 9417SOL    HW229446   8.075   0.629   3.655  2.4183 -2.1915 -0.4699
 9418SOL     OW29447   6.784   4.003   7.550 -0.3544 -0.3010 -0.5236
 9418SOL    HW129448   6.783   3.946   7.627 -0.0919 -0.1976 -0.4407
 9418SOL    HW229449   6.844   4.073   7.574 -1.5124  0.6037 -0.2146
 9419SOL     OW29450   6.871   2.284   6.760 -0.6731 -0.2725 -0.2088
 9419SOL    HW129451   6.826   2.344   6.821 -0.7807 -1.0230  0.4631
 9419SOL    HW229452   6.849   2.197   6.792 -1.2025 -0.7009 -1.6748
 9420SOL     OW29453   4.895   3.450   7.548  0.1462 -0.1409  0.5027
 9420SOL    HW129454   4.927   3.362   7.527 -0.7360 -0.8316  1.8953
 9420SOL    HW229455   4.801   3.446   7.530 -0.0760  0.1935  1.5555
 9421SOL     OW29456   2.845   2.969   2.747  0.4406 -0.3835 -0.2657
 9421SOL    HW129457   2.856   3.063   2.760  0.3125 -0.2789 -0.9176
 9421SOL    HW229458   2.821   2.936   2.834 -0.2184  0.2854 -0.1906
 9422SOL     OW29459   5.437   5.560   7.689  0.1177 -0.0414 -0.6812
 9422SOL    HW129460   5.458   5.581   7.598 -1.7619  0.1592 -1.1068
 9422SOL    HW229461   5.418   5.644   7.729 -0.3807 -0.2463 -0.4767
 9423SOL     OW29462   8.042   0.062   7.648 -0.1413  0.2393 -0.1186
 9423SOL    HW129463   7.986   0.139   7.642 -1.1313 -0.3330  1.2778
 9423SOL    HW229464   8.012   0.003   7.579 -1.4812 -0.1744  0.7869
 9424SOL     OW29465   3.539   0.369   2.089 -0.4300  0.4091 -0.6287
 9424SOL    HW129466   3.515   0.339   2.001  0.3290 -2.1517 -0.0707
 9424SOL    HW229467   3.545   0.288   2.140 -0.3392  1.7841  1.6642
 9425SOL     OW29468   3.747   6.713   3.276 -0.0879  0.3094 -0.4734
 9425SOL    HW129469   3.832   6.730   3.318 -0.0454  0.0796 -0.4620
 9425SOL    HW229470   3.703   6.653   3.336 -0.4420  0.7864 -0.2600
 9426SOL     OW29471   3.894   1.313   5.886  0.0230 -0.3075 -0.2929
 9426SOL    HW129472   3.842   1.236   5.911  0.9181 -0.8855 -0.1458
 9426SOL    HW229473   3.831   1.374   5.850 -0.4788 -2.0150 -2.5841
 9427SOL     OW29474   6.211   1.240   6.229  0.2009  0.2890 -0.1295
 9427SOL    HW129475   6.248   1.323   6.259  0.1590 -0.1678  1.2687
 9427SOL    HW229476   6.238   1.233   6.137  0.8353  1.4826 -0.0531
 9428SOL     OW29477   6.619   3.432   2.890 -0.0434  0.3428 -0.3809
 9428SOL    HW129478   6.640   3.441   2.797 -0.3076  0.1796 -0.4566
 9428SOL    HW229479   6.669   3.501   2.932  1.0144 -0.3099 -0.5048
 9429SOL     OW29480   4.715   0.225   3.002  0.5316 -0.8780 -0.7592
 9429SOL    HW129481   4.735   0.141   3.043  2.9755 -0.7850 -1.6192
 9429SOL    HW229482   4.800   0.266   2.988 -0.5412  1.3492 -1.2302
 9430SOL     OW29483   4.473   7.982   7.754  0.1491  0.0988  0.0200
 9430SOL    HW129484   4.527   7.982   7.675 -1.6272  1.3163 -1.2538
 9430SOL    HW229485   4.492   7.897   7.795  0.9699 -0.6659 -1.8181
 9431SOL     OW29486   2.159   1.724   0.918 -0.1261 -0.1938  0.5124
 9431SOL    HW129487   2.162   1.820   0.928 -0.1232 -0.2268  0.8512
 9431SOL    HW229488   2.214   1.691   0.989  0.2068 -0.4355  0.1405
 9432SOL     OW29489   4.539   1.715   0.784  0.1374  0.5296  0.2456
 9432SOL    HW129490   4.552   1.786   0.847 -0.4494  1.0303 -0.1806
 9432SOL    HW229491   4.627   1.697   0.749  0.2608  1.2164  0.1852
 9433SOL     OW29492   6.549   2.790   5.027 -0.3786  0.0182  0.0471
 9433SOL    HW129493   6.577   2.773   4.937  0.2924  3.8419 -0.6335
 9433SOL    HW229494   6.453   2.781   5.025 -0.3577 -0.0674 -1.0296
 9434SOL     OW29495   6.656   7.092   8.344 -0.2369 -0.2292 -0.2225
 9434SOL    HW129496   6.601   7.151   8.396  0.9223 -0.4506  1.3294
 9434SOL    HW229497   6.717   7.149   8.298 -0.6403 -0.0940 -0.6009
 9435SOL     OW29498   8.503   3.739   3.917 -0.2132  0.4478  0.0103
 9435SOL    HW129499   8.509   3.716   4.009 -0.5973  1.9767  0.4385
 9435SOL    HW229500   8.588   3.779   3.897 -0.5752  1.2463  0.0387
 9436SOL     OW29501   6.355   7.669   1.806 -0.0270  0.0196 -0.3010
 9436SOL    HW129502   6.281   7.715   1.845  1.0227 -0.0068  1.9013
 9436SOL    HW229503   6.334   7.576   1.816  1.1707 -0.0566  2.4071
 9437SOL     OW29504   1.723   0.389   5.688 -0.4033  0.0263  0.5499
 9437SOL    HW129505   1.661   0.333   5.735 -1.0561 -0.7087 -1.1238
 9437SOL    HW229506   1.716   0.362   5.597  1.2709  0.9992  0.0886
 9438SOL     OW29507   3.708   2.387   2.740  1.1466  0.1829  0.0598
 9438SOL    HW129508   3.724   2.293   2.729  0.8067  0.0183  0.9056
 9438SOL    HW229509   3.709   2.401   2.834  1.8501  1.1591 -0.0769
 9439SOL     OW29510   5.638   8.553   1.451  0.0379 -0.3643 -0.1604
 9439SOL    HW129511   5.561   8.498   1.466 -0.5409  0.3299 -0.4718
 9439SOL    HW229512   5.601   8.637   1.423  0.8841  0.3399  0.7980
 9440SOL     OW29513   3.491   7.993   6.792  0.0394  0.1168  0.5164
 9440SOL    HW129514   3.454   8.080   6.777 -0.5593  0.1102  1.8448
 9440SOL    HW229515   3.586   8.008   6.799  0.0228  0.5318 -0.0820
 9441SOL     OW29516   3.464   6.476   4.114  0.6415 -0.6681 -0.6496
 9441SOL    HW129517   3.400   6.415   4.150  0.0853  0.6001  0.5787
 9441SOL    HW229518   3.523   6.495   4.187  0.7796  0.2817 -0.9954
 9442SOL     OW29519   7.965   8.364   2.100 -0.5145  0.2541  0.0401
 9442SOL    HW129520   7.994   8.311   2.027 -1.7997 -0.5145  0.0710
 9442SOL    HW229521   7.886   8.408   2.069 -0.2051  1.1279  0.4541
 9443SOL     OW29522   5.198   7.872   6.355 -0.1745  0.3848  0.3627
 9443SOL    HW129523   5.205   7.778   6.339 -0.7790  0.3784  0.0900
 9443SOL    HW229524   5.170   7.878   6.447  0.5766  0.3275  0.6010
 9444SOL     OW29525   2.467   4.058   1.302 -0.3735 -0.2031  0.4288
 9444SOL    HW129526   2.473   4.059   1.398  0.8833 -2.0059  0.4194
 9444SOL    HW229527   2.375   4.039   1.284 -0.9626  1.6103  1.1956
 9445SOL     OW29528   7.234   2.017   6.087 -0.3174 -0.5126 -0.1201
 9445SOL    HW129529   7.308   1.977   6.133  0.2321 -0.1115 -0.6527
 9445SOL    HW229530   7.266   2.102   6.058 -0.9943 -0.3243 -0.3425
 9446SOL     OW29531   4.072   0.359   3.660  0.2711  0.3328  0.0406
 9446SOL    HW129532   4.162   0.376   3.633  0.3577 -2.0256 -1.4613
 9446SOL    HW229533   4.019   0.385   3.584 -0.2939  1.0504  0.6551
 9447SOL     OW29534   6.263   6.650   2.268 -0.0408 -0.0310  0.1287
 9447SOL    HW129535   6.264   6.572   2.323  1.1112  0.0719  0.2767
 9447SOL    HW229536   6.291   6.619   2.182  0.8624  0.2751  0.2972
 9448SOL     OW29537   7.773   0.996   2.449  0.4679 -0.0967  0.4518
 9448SOL    HW129538   7.744   1.065   2.508  0.7588  0.7636 -0.3801
 9448SOL    HW229539   7.707   0.927   2.457 -0.0494  0.4532  0.9826
 9449SOL     OW29540   6.283   7.329   7.340  0.0435  0.4047  0.0639
 9449SOL    HW129541   6.191   7.355   7.331 -0.2397 -0.4979  0.3136
 9449SOL    HW229542   6.318   7.334   7.251 -1.3023 -3.1518 -0.8167
 9450SOL     OW29543   4.008   1.161   4.188  0.1979 -0.4970 -0.3974
 9450SOL    HW129544   4.084   1.103   4.194 -0.8109 -2.0446 -1.9140
 9450SOL    HW229545   3.944   1.112   4.137 -1.5030  1.1350  0.0638
 9451SOL     OW29546   7.489   4.061   7.210 -0.4242  0.1787  0.8432
 9451SOL    HW129547   7.441   4.016   7.280 -1.2578 -2.0293 -1.0386
 9451SOL    HW229548   7.426   4.068   7.138  1.7630 -2.4256 -1.5696
 9452SOL     OW29549   0.548   7.687   3.886 -0.0210  0.0271  0.3417
 9452SOL    HW129550   0.482   7.726   3.828 -0.0172 -1.1959 -0.5164
 9452SOL    HW229551   0.621   7.748   3.884 -0.4822  0.5744 -0.0217
 9453SOL     OW29552   4.357   7.766   4.981  0.0042 -0.0048 -0.1025
 9453SOL    HW129553   4.413   7.831   4.938  0.1769 -0.6517 -0.8824
 9453SOL    HW229554   4.394   7.755   5.068 -0.1094  1.0417  0.0855
 9454SOL     OW29555   0.322   6.505   6.084  0.5519 -0.2622 -0.0613
 9454SOL    HW129556   0.308   6.583   6.029  0.1244  0.1365  0.5988
 9454SOL    HW229557   0.244   6.452   6.071  0.3861 -0.1015  0.2587
 9455SOL     OW29558   3.428   3.189   7.287  0.5236  0.1460  0.0596
 9455SOL    HW129559   3.380   3.190   7.204  0.5277 -0.5137  0.0430
 9455SOL    HW229560   3.464   3.277   7.295 -0.4965  0.5733 -0.0347
 9456SOL     OW29561   5.432   1.481   5.169 -0.4959  0.3917  0.0052
 9456SOL    HW129562   5.395   1.518   5.249  0.2663 -2.6610  1.9312
 9456SOL    HW229563   5.359   1.437   5.127 -0.6959  1.2010 -0.5133
 9457SOL     OW29564   7.482   2.987   5.888  0.5820  0.2237 -0.0022
 9457SOL    HW129565   7.430   2.981   5.968  0.7081  1.0997  0.1534
 9457SOL    HW229566   7.543   3.059   5.904  1.2191 -0.1835 -0.5422
 9458SOL     OW29567   1.008   7.472   4.151  0.1181 -0.6782  0.2298
 9458SOL    HW129568   1.000   7.403   4.217  0.4042 -1.1350 -0.1978
 9458SOL    HW229569   0.961   7.437   4.075  1.0116 -0.7915 -0.2846
 9459SOL     OW29570   4.281   2.534   4.644 -0.1961  0.0688  0.1733
 9459SOL    HW129571   4.341   2.495   4.580 -0.6781  1.9668 -1.5487
 9459SOL    HW229572   4.214   2.577   4.590 -1.4723  0.4971  2.0097
 9460SOL     OW29573   6.440   5.526   5.588 -0.5735 -0.2906  0.3161
 9460SOL    HW129574   6.465   5.599   5.644 -2.1290  1.2926 -0.9636
 9460SOL    HW229575   6.486   5.541   5.506  0.3380 -1.6654  0.5307
 9461SOL     OW29576   8.282   6.891   5.132 -0.0451 -0.3719  0.1131
 9461SOL    HW129577   8.278   6.927   5.043  2.4203 -0.3212 -0.0458
 9461SOL    HW229578   8.286   6.797   5.119 -0.7580 -0.4296  0.2548
 9462SOL     OW29579   4.031   1.480   7.426 -0.2418 -0.0601  0.3934
 9462SOL    HW129580   3.975   1.483   7.504 -0.9744 -0.4487 -0.1191
 9462SOL    HW229581   3.978   1.517   7.356  0.2787 -0.0740 -0.0145
 9463SOL     OW29582   7.966   7.494   5.595  0.1691  0.3390 -0.0788
 9463SOL    HW129583   8.006   7.460   5.516  1.1026 -0.0665  0.5535
 9463SOL    HW229584   8.022   7.567   5.622 -0.0120  0.3355  0.3282
 9464SOL     OW29585   3.424   5.111   7.333  0.4448  0.2908  0.3641
 9464SOL    HW129586   3.355   5.061   7.289  2.1655 -2.1051  0.1522
 9464SOL    HW229587   3.409   5.096   7.426  0.2478  0.3900  0.3476
 9465SOL     OW29588   3.302   6.512   5.069 -0.4432  0.2823 -0.2309
 9465SOL    HW129589   3.216   6.554   5.068 -0.7333 -0.3023 -0.0501
 9465SOL    HW229590   3.355   6.565   5.009 -1.0386  0.4050 -0.6607
 9466SOL     OW29591   4.310   6.024   4.598  0.0444  0.2639 -0.2034
 9466SOL    HW129592   4.320   6.118   4.609  0.6158  0.0807  1.0211
 9466SOL    HW229593   4.400   5.990   4.596 -0.1582 -0.2841 -0.3377
 9467SOL     OW29594   6.191   2.063   1.905 -0.5773 -0.0554 -0.0219
 9467SOL    HW129595   6.097   2.048   1.915 -0.4245 -0.8438  0.3473
 9467SOL    HW229596   6.204   2.156   1.925 -1.0371 -0.3382  1.7387
 9468SOL     OW29597   0.569   3.651   5.435 -0.1672  0.0457 -0.2740
 9468SOL    HW129598   0.589   3.730   5.385  1.4882  0.5077  1.0362
 9468SOL    HW229599   0.502   3.679   5.498  1.2327  0.7617  0.9540
 9469SOL     OW29600   2.359   4.439   7.131 -0.0342 -0.1423 -0.0199
 9469SOL    HW129601   2.452   4.461   7.126 -0.1369  0.0627 -1.4490
 9469SOL    HW229602   2.314   4.523   7.138 -0.1790 -0.1440 -0.8347
 9470SOL     OW29603   6.422   0.902   7.481 -0.3302 -0.1848  0.7645
 9470SOL    HW129604   6.434   0.965   7.552 -2.2571  1.1658 -0.0297
 9470SOL    HW229605   6.357   0.942   7.423  1.2789 -1.1062 -1.9148
 9471SOL     OW29606   0.476   8.602   1.466 -0.4677  0.5738 -0.1585
 9471SOL    HW129607   0.381   8.610   1.466 -0.4488  1.0127  1.2166
 9471SOL    HW229608   0.493   8.518   1.423 -1.5275 -0.0158  0.5345
 9472SOL     OW29609   1.853   1.315   1.061  0.0453  0.4328  0.1452
 9472SOL    HW129610   1.786   1.383   1.054  0.0050  0.2600 -4.0374
 9472SOL    HW229611   1.806   1.236   1.086 -1.0446  0.7219 -0.8936
 9473SOL     OW29612   1.893   7.317   5.240 -0.3211 -0.0264 -0.0351
 9473SOL    HW129613   1.823   7.299   5.177  0.0456  1.3652 -0.9071
 9473SOL    HW229614   1.888   7.246   5.304 -2.5497  0.0556 -0.0496
 9474SOL     OW29615   7.320   3.046   8.188 -0.3563  0.1473  0.2444
 9474SOL    HW129616   7.331   3.099   8.109 -0.5734  0.5942  0.5073
 9474SOL    HW229617   7.314   3.110   8.259  1.8166 -0.2802  0.8843
 9475SOL     OW29618   0.975   6.715   4.266 -0.0540 -0.2002 -0.1582
 9475SOL    HW129619   0.887   6.711   4.230 -0.1164  0.9309 -0.1795
 9475SOL    HW229620   1.007   6.625   4.264 -2.3874 -1.2766  2.8910
 9476SOL     OW29621   3.963   4.563   4.252  0.0506  0.0856 -0.6586
 9476SOL    HW129622   3.951   4.489   4.312  1.2312  1.0445  0.8537
 9476SOL    HW229623   3.958   4.525   4.165 -1.7076 -1.3887  0.0148
 9477SOL     OW29624   3.870   4.890   4.742 -0.0498 -0.0893 -0.2027
 9477SOL    HW129625   3.892   4.977   4.775  0.6025 -0.2166 -0.3021
 9477SOL    HW229626   3.904   4.830   4.808  1.9043 -0.3805 -1.4166
 9478SOL     OW29627   6.656   3.878   5.148  0.9879  0.1565 -0.5218
 9478SOL    HW129628   6.597   3.815   5.189  1.0166 -1.1646 -2.3901
 9478SOL    HW229629   6.742   3.860   5.188  0.5787  0.5702  0.5764
 9479SOL     OW29630   8.426   4.709   3.744 -0.4080 -0.1797  0.2110
 9479SOL    HW129631   8.354   4.667   3.695 -0.2974 -1.0066  0.7307
 9479SOL    HW229632   8.425   4.665   3.829  0.1988  0.3790  0.5102
 9480SOL     OW29633   3.787   5.809   3.238  0.2455  0.0761  0.2013
 9480SOL    HW129634   3.698   5.808   3.204 -0.8711  1.0478  2.8257
 9480SOL    HW229635   3.839   5.850   3.169 -1.1215 -1.2569 -1.7132
 9481SOL     OW29636   0.672   6.501   2.242  0.4015 -0.0805  0.1513
 9481SOL    HW129637   0.642   6.423   2.290  0.2310 -0.5695 -0.7269
 9481SOL    HW229638   0.603   6.566   2.257  0.8678  0.1509  1.4450
 9482SOL     OW29639   8.483   1.311   7.901  0.1451  0.5219  0.2055
 9482SOL    HW129640   8.481   1.342   7.992 -0.6650 -0.5362  0.5648
 9482SOL    HW229641   8.477   1.216   7.908  0.1680  0.4230 -0.9633
 9483SOL     OW29642   0.244   0.002   5.378  0.3488  0.0393 -0.3184
 9483SOL    HW129643   0.298   0.072   5.341 -1.1111  1.3003 -0.1630
 9483SOL    HW229644   0.260  -0.073   5.321  2.3827  0.2771 -0.1618
 9484SOL     OW29645   1.672   2.678   4.691 -0.4231  0.2439 -0.3313
 9484SOL    HW129646   1.600   2.737   4.669  0.1664  0.4033 -2.0504
 9484SOL    HW229647   1.673   2.614   4.619  0.4474 -0.4149  0.2411
 9485SOL     OW29648   1.631   0.597   5.416 -0.6280 -0.3854  0.5115
 9485SOL    HW129649   1.719   0.614   5.383 -0.4144 -2.5795 -0.2100
 9485SOL    HW229650   1.590   0.683   5.420  0.5490  0.3919 -2.0727
 9486SOL     OW29651   1.387   3.730   7.895  0.4046  0.1784 -0.2851
 9486SOL    HW129652   1.471   3.690   7.917  0.4317  0.3382 -0.0915
 9486SOL    HW229653   1.343   3.742   7.980  0.2524  0.2395 -0.3712
 9487SOL     OW29654   5.046   7.803   5.764 -0.7189  0.4097 -0.0158
 9487SOL    HW129655   5.062   7.710   5.781 -1.9542 -0.1488 -1.6584
 9487SOL    HW229656   4.985   7.830   5.833  1.1240  0.5616  1.6406
 9488SOL     OW29657   8.511   3.617   5.356  0.0582  0.5046  0.6664
 9488SOL    HW129658   8.444   3.678   5.324  1.4664  1.5895 -0.3107
 9488SOL    HW229659   8.478   3.589   5.442 -1.1128  1.8839  0.7034
 9489SOL     OW29660   5.552   1.900   4.645 -0.2184  0.5686 -0.2711
 9489SOL    HW129661   5.640   1.873   4.621 -1.3203 -2.6242 -1.1977
 9489SOL    HW229662   5.495   1.856   4.583 -2.5427  1.9064  0.7723
 9490SOL     OW29663   0.538   1.181   8.526 -0.6748 -0.0520 -0.1404
 9490SOL    HW129664   0.534   1.197   8.621 -0.3751  0.6456 -0.2418
 9490SOL    HW229665   0.565   1.089   8.519 -0.9213 -0.1753  0.4521
 9491SOL     OW29666   7.314   2.764   4.655  0.3594  0.5184 -0.4796
 9491SOL    HW129667   7.351   2.697   4.599 -0.5768 -0.4916  0.0631
 9491SOL    HW229668   7.220   2.761   4.637  0.4263  2.5823 -1.3852
 9492SOL     OW29669   1.856   4.061   5.079 -0.0527 -0.0684 -0.5116
 9492SOL    HW129670   1.950   4.075   5.075 -0.0887  0.1967 -0.4260
 9492SOL    HW229671   1.827   4.111   5.156 -0.4831  1.0813 -1.3900
 9493SOL     OW29672   1.791   1.392   1.564  0.0876  0.1269  0.1560
 9493SOL    HW129673   1.765   1.478   1.598  1.4165  0.9299 -0.7486
 9493SOL    HW229674   1.763   1.394   1.472 -0.0225 -0.4828  0.1732
 9494SOL     OW29675   3.592   5.534   1.313 -0.2798 -0.3836  0.1871
 9494SOL    HW129676   3.597   5.587   1.393  1.0320 -0.7170  0.3536
 9494SOL    HW229677   3.586   5.444   1.345 -1.6559 -0.4025 -0.0985
 9495SOL     OW29678   6.060   1.547   0.774  0.3637 -0.3207  0.8608
 9495SOL    HW129679   5.993   1.596   0.726  0.3602 -1.4770 -0.3581
 9495SOL    HW229680   6.142   1.590   0.751  0.2166  0.0335  0.9913
 9496SOL     OW29681   0.509   6.944   0.134  0.0717  0.4262 -0.4058
 9496SOL    HW129682   0.571   6.989   0.077  0.8890 -1.0755 -0.7542
 9496SOL    HW229683   0.426   6.991   0.122  0.2306  0.2025 -2.7805
 9497SOL     OW29684   3.163   5.195   7.443  0.2609  0.1900  0.2720
 9497SOL    HW129685   3.095   5.165   7.384  2.0566 -0.7269 -1.4641
 9497SOL    HW229686   3.133   5.169   7.530 -0.7243 -1.8889 -0.6349
 9498SOL     OW29687   6.186   1.253   2.998  0.1859  0.5269  0.3631
 9498SOL    HW129688   6.220   1.202   3.072  0.6770 -0.3329 -0.4385
 9498SOL    HW229689   6.117   1.199   2.961 -0.9842  1.5466  0.9805
 9499SOL     OW29690   1.874   2.711   1.375  0.3867 -0.1001 -0.2351
 9499SOL    HW129691   1.793   2.681   1.416  1.8490 -0.3571  2.8297
 9499SOL    HW229692   1.918   2.630   1.348  0.3569 -0.0910 -0.3096
 9500SOL     OW29693   4.758   5.179   0.292 -0.3501 -0.0482 -0.2640
 9500SOL    HW129694   4.785   5.228   0.214  0.6182 -1.4165 -0.8297
 9500SOL    HW229695   4.839   5.153   0.334 -0.8576 -0.2208  0.6236
 9501SOL     OW29696   8.297   5.764   7.624  0.0123  0.1343  0.3730
 9501SOL    HW129697   8.385   5.743   7.592 -0.3072  0.1638 -0.5672
 9501SOL    HW229698   8.243   5.690   7.596 -0.6408  1.0150 -0.8086
 9502SOL     OW29699   6.233   7.160   3.338  0.4047  0.1059 -0.1764
 9502SOL    HW129700   6.184   7.169   3.420 -0.0662  0.4506 -0.4929
 9502SOL    HW229701   6.302   7.227   3.344 -1.2133  1.9791 -1.1787
 9503SOL     OW29702   4.957   0.312   1.566 -0.0471 -0.9462  0.1549
 9503SOL    HW129703   4.922   0.298   1.654  0.8152 -3.2664  0.1950
 9503SOL    HW229704   4.881   0.337   1.514 -0.7725 -0.6568  1.3120
 9504SOL     OW29705   1.351   4.284   8.515  0.0343 -0.3310  0.1193
 9504SOL    HW129706   1.360   4.379   8.508  0.6270 -0.3198  0.8852
 9504SOL    HW229707   1.363   4.266   8.608  0.3381 -1.1898 -0.0790
 9505SOL     OW29708   3.695   3.560   1.947 -0.4683  0.2782  0.1353
 9505SOL    HW129709   3.738   3.480   1.917 -1.9976 -0.7920  0.6802
 9505SOL    HW229710   3.719   3.626   1.881  1.4285 -0.4090  0.0820
 9506SOL     OW29711   0.098   6.374   5.349  0.3670 -0.7757  0.0314
 9506SOL    HW129712   0.059   6.461   5.345  1.9701 -0.0595 -0.7737
 9506SOL    HW229713   0.127   6.365   5.440  0.1019 -0.5251  0.1428
 9507SOL     OW29714   5.321   4.116   4.803  0.0355 -0.1053 -0.2799
 9507SOL    HW129715   5.312   4.155   4.716 -0.5342  0.2440 -0.0695
 9507SOL    HW229716   5.318   4.022   4.788 -1.8395 -0.0538 -0.4781
 9508SOL     OW29717   4.395   4.286   1.366  0.8866  0.1421  0.3325
 9508SOL    HW129718   4.366   4.339   1.440  0.8133 -0.0597  0.4480
 9508SOL    HW229719   4.404   4.349   1.294  0.5810  0.2750  0.4094
 9509SOL     OW29720   1.260   6.212   4.166 -0.3048 -0.1512 -0.2978
 9509SOL    HW129721   1.289   6.292   4.123 -0.0978 -0.7704 -1.3296
 9509SOL    HW229722   1.317   6.204   4.243 -0.0177  0.4323 -0.4461
 9510SOL     OW29723   1.986   6.374   2.327 -0.4533  1.0982 -0.0436
 9510SOL    HW129724   2.036   6.436   2.275 -1.0756  1.0843 -0.6749
 9510SOL    HW229725   1.905   6.421   2.349 -0.4419  0.9049  0.4290
 9511SOL     OW29726   8.296   2.392   4.697  0.4920 -0.5728  0.2613
 9511SOL    HW129727   8.338   2.306   4.688  2.1749  0.1574  0.8873
 9511SOL    HW229728   8.368   2.455   4.697 -0.3756  0.6080  3.2122
 9512SOL     OW29729   3.186   6.042   6.742  0.0997 -0.6451 -0.4237
 9512SOL    HW129730   3.177   5.975   6.673 -0.6308 -0.8340 -0.1474
 9512SOL    HW229731   3.160   6.123   6.699 -1.8816 -1.0016  0.0394
 9513SOL     OW29732   7.552   6.983   7.391  0.3211 -0.3869 -0.4686
 9513SOL    HW129733   7.581   6.968   7.481  0.2272  1.0663 -0.1652
 9513SOL    HW229734   7.462   6.950   7.389  0.7060 -1.4869 -0.3747
 9514SOL     OW29735   1.582   4.687   5.325  0.2074 -0.0459 -0.2580
 9514SOL    HW129736   1.648   4.621   5.346 -0.9693 -0.8199  1.2226
 9514SOL    HW229737   1.616   4.732   5.248  2.2865 -0.6381  0.2571
 9515SOL     OW29738   1.119   2.637   2.977  0.1575  0.3179 -0.1443
 9515SOL    HW129739   1.127   2.675   3.064  0.0671  0.2720 -0.1148
 9515SOL    HW229740   1.025   2.642   2.958 -0.4005 -2.8511  1.2078
 9516SOL     OW29741   6.010   6.614   7.527 -0.0187  0.0793  0.2894
 9516SOL    HW129742   6.093   6.610   7.574  2.1386 -1.4601 -3.2558
 9516SOL    HW229743   5.986   6.707   7.529  1.2121  0.4158  2.1468
 9517SOL     OW29744   1.204   7.920   2.356  0.1190  0.1822  0.5629
 9517SOL    HW129745   1.284   7.967   2.379 -1.1810  1.5187  2.6284
 9517SOL    HW229746   1.187   7.945   2.265  0.5490  2.1013  0.9764
 9518SOL     OW29747   2.974   2.400   0.598  0.3560 -0.7636  0.0679
 9518SOL    HW129748   2.983   2.454   0.676  0.5794  0.5445 -0.8208
 9518SOL    HW229749   3.060   2.405   0.555 -0.0824 -0.5379 -0.8142
 9519SOL     OW29750   8.129   3.469   1.723  0.4049 -0.4421  1.2807
 9519SOL    HW129751   8.085   3.555   1.722  0.2143 -0.5360  0.1914
 9519SOL    HW229752   8.194   3.476   1.793  0.8603  0.8338  0.7566
 9520SOL     OW29753   7.597   7.692   7.795  0.0667  0.3445 -0.1689
 9520SOL    HW129754   7.561   7.659   7.713  0.6154  1.4503 -0.8958
 9520SOL    HW229755   7.622   7.614   7.844  2.2182 -0.3692 -2.2188
 9521SOL     OW29756   3.211   6.495   3.665  0.0022 -0.1145 -0.0394
 9521SOL    HW129757   3.278   6.511   3.732 -0.0084 -0.4499  0.0510
 9521SOL    HW229758   3.248   6.534   3.585 -0.7126  1.8373  0.5062
 9522SOL     OW29759   2.710   2.580   5.540 -0.9287 -0.0752 -0.6843
 9522SOL    HW129760   2.768   2.505   5.546 -2.7491 -1.4933  0.3666
 9522SOL    HW229761   2.722   2.614   5.451  1.4399 -0.2864 -0.4895
 9523SOL     OW29762   0.860   0.759   2.769 -0.2321 -0.5606 -0.2365
 9523SOL    HW129763   0.828   0.782   2.856  1.8353  3.1179 -0.2407
 9523SOL    HW229764   0.789   0.785   2.709 -0.7354 -0.9281  0.1929
 9524SOL     OW29765   4.551   0.325   8.247 -0.0111  0.3929  0.2720
 9524SOL    HW129766   4.600   0.243   8.255  0.7303  0.9459  1.9744
 9524SOL    HW229767   4.601   0.377   8.184  0.9585  0.4960  1.1071
 9525SOL     OW29768   8.443   0.071   6.187 -0.5728 -0.0363 -0.1936
 9525SOL    HW129769   8.524   0.078   6.238  0.0010 -3.3103 -0.4105
 9525SOL    HW229770   8.473   0.058   6.097 -1.4229  0.5982 -0.5712
 9526SOL     OW29771   3.853   1.361   2.285  0.0484 -0.0579  0.2891
 9526SOL    HW129772   3.925   1.302   2.266  0.7193  0.5679  0.8130
 9526SOL    HW229773   3.885   1.447   2.258 -0.0583  0.4031  1.5853
 9527SOL     OW29774   2.618   7.218   3.364  0.1848  0.1875  0.0817
 9527SOL    HW129775   2.607   7.151   3.297  1.3149  0.4435 -0.3710
 9527SOL    HW229776   2.695   7.191   3.413 -0.0905  0.4968  0.6959
 9528SOL     OW29777   3.758   8.387   6.632 -0.1844  0.0079  0.0008
 9528SOL    HW129778   3.678   8.405   6.682 -0.4950 -1.3159  0.0340
 9528SOL    HW229779   3.829   8.424   6.685 -0.7077  0.6198  0.2900
 9529SOL     OW29780   1.158   1.898   1.119  0.7546  0.1701 -0.4806
 9529SOL    HW129781   1.146   1.920   1.212 -0.1561  0.0692 -0.5697
 9529SOL    HW229782   1.225   1.959   1.089 -1.5320  2.7616 -0.6714
 9530SOL     OW29783   5.558   1.226   3.416  0.5257  0.0491 -0.6735
 9530SOL    HW129784   5.536   1.169   3.490  1.2433 -0.7795 -1.0794
 9530SOL    HW229785   5.648   1.253   3.433  0.0683  1.4122 -0.2828
 9531SOL     OW29786   0.297   1.295   0.985 -0.0202  0.2099  0.1057
 9531SOL    HW129787   0.273   1.363   0.922 -1.7442 -1.0973 -0.7108
 9531SOL    HW229788   0.330   1.344   1.061 -2.1887  2.0188 -0.0194
 9532SOL     OW29789   7.805   4.852   5.795  0.5104 -0.3407  0.0933
 9532SOL    HW129790   7.791   4.771   5.746 -0.4406 -0.7550  1.0161
 9532SOL    HW229791   7.724   4.864   5.844  0.7310  1.0541  0.1456
 9533SOL     OW29792   6.150   0.667   1.264 -0.0729 -0.0100  0.3118
 9533SOL    HW129793   6.133   0.656   1.170  0.9711  1.0945 -0.0203
 9533SOL    HW229794   6.109   0.590   1.304  0.1642 -0.9338 -1.1263
 9534SOL     OW29795   8.423   4.955   0.268 -0.2615 -0.4271 -0.2006
 9534SOL    HW129796   8.357   5.016   0.236 -1.4706 -0.6898  1.6391
 9534SOL    HW229797   8.380   4.870   0.266  0.7421 -0.9364 -0.8980
 9535SOL     OW29798   3.065   6.233   2.251 -0.7745  0.3518 -0.0187
 9535SOL    HW129799   3.104   6.255   2.167  1.3909 -2.0883  0.2285
 9535SOL    HW229800   3.039   6.141   2.242 -3.5147  0.9130  1.0022
 9536SOL     OW29801   7.998   7.575   0.969 -0.3099 -0.0669  0.2361
 9536SOL    HW129802   7.909   7.583   1.002 -0.7202 -2.0177 -0.2428
 9536SOL    HW229803   8.030   7.493   1.008  0.4896 -0.5110 -1.2917
 9537SOL     OW29804   6.313   1.360   5.171 -0.4270 -0.0828 -0.0324
 9537SOL    HW129805   6.378   1.415   5.128  0.4691 -0.0568  1.2827
 9537SOL    HW229806   6.346   1.351   5.261 -1.9671 -0.5244  0.5094
 9538SOL     OW29807   0.423   7.598   7.457  0.1312  0.4212 -0.0133
 9538SOL    HW129808   0.332   7.579   7.478  0.4426 -0.3526  0.6956
 9538SOL    HW229809   0.444   7.536   7.387  0.3896 -0.0874  0.5046
 9539SOL     OW29810   2.917   2.229   6.600 -0.7715 -0.2103  0.1793
 9539SOL    HW129811   2.995   2.175   6.583 -0.1284  0.3921  1.1473
 9539SOL    HW229812   2.952   2.315   6.623 -1.7571  0.3115 -0.2189
 9540SOL     OW29813   8.492   0.966   7.678 -0.6510  0.6963 -0.5192
 9540SOL    HW129814   8.496   0.909   7.601 -0.3545 -2.1390  1.4680
 9540SOL    HW229815   8.402   0.997   7.680 -1.4127 -1.3477 -0.6231
 9541SOL     OW29816   1.548   3.644   6.835  0.4026 -0.0146  0.1221
 9541SOL    HW129817   1.518   3.616   6.922  3.4664 -1.9880  0.7221
 9541SOL    HW229818   1.498   3.723   6.816  0.0629  0.9040  4.0066
 9542SOL     OW29819   2.439   1.180   7.280  0.0899 -0.0631  0.1691
 9542SOL    HW129820   2.380   1.223   7.218  0.9784 -1.3071 -1.6513
 9542SOL    HW229821   2.405   1.091   7.287  0.1194  0.0078  1.3465
 9543SOL     OW29822   7.940   0.570   3.350 -0.4364  0.2600 -0.3710
 9543SOL    HW129823   7.860   0.519   3.339 -0.2930 -0.0042 -0.1854
 9543SOL    HW229824   7.999   0.539   3.282  1.1002 -2.6130  2.0339
 9544SOL     OW29825   2.098   2.261   1.413 -0.3328  0.4914 -0.2814
 9544SOL    HW129826   2.049   2.228   1.488 -1.2565  1.2484 -0.5222
 9544SOL    HW229827   2.063   2.350   1.399  2.1892  1.6816  0.4960
 9545SOL     OW29828   1.179   6.743   1.647 -0.3295 -0.1085 -0.2956
 9545SOL    HW129829   1.183   6.778   1.558  0.7623 -0.1956 -0.2961
 9545SOL    HW229830   1.130   6.809   1.696  0.6558  0.8570 -0.5630
 9546SOL     OW29831   6.114   0.695   2.064 -0.4918 -0.0525  0.1569
 9546SOL    HW129832   6.207   0.709   2.082  0.2574 -2.1599 -1.7012
 9546SOL    HW229833   6.072   0.774   2.098  1.9305  0.9233  1.1694
 9547SOL     OW29834   0.174   7.105   2.819 -0.6905  0.5899  0.7433
 9547SOL    HW129835   0.151   7.088   2.727 -0.5220 -0.7411  0.9244
 9547SOL    HW229836   0.176   7.200   2.826 -1.7815  0.7283 -0.3722
 9548SOL     OW29837   6.879   7.205   1.330  0.1871 -0.1448 -0.0666
 9548SOL    HW129838   6.853   7.114   1.338 -0.3067 -0.0202 -0.2175
 9548SOL    HW229839   6.797   7.253   1.315  0.4971  0.2488 -0.5824
 9549SOL     OW29840   4.882   0.029   4.690  0.8904 -0.1918 -0.0326
 9549SOL    HW129841   4.796   0.060   4.659 -0.2036 -0.9994  2.0022
 9549SOL    HW229842   4.871  -0.065   4.700  0.5967  0.0866  4.0455
 9550SOL     OW29843   4.173   2.388   2.073 -0.4444 -0.1310 -0.0668
 9550SOL    HW129844   4.247   2.345   2.031 -1.7078 -2.1901 -0.3288
 9550SOL    HW229845   4.186   2.482   2.056  1.7757 -0.4830 -0.5570
 9551SOL     OW29846   6.160   3.003   0.861 -0.1454 -0.0084  0.1985
 9551SOL    HW129847   6.218   2.963   0.926 -1.0055 -1.3826  0.1704
 9551SOL    HW229848   6.112   3.070   0.909  1.2621  1.0089  0.2688
 9552SOL     OW29849   1.987   2.949   1.331 -0.7270 -0.1596  0.2288
 9552SOL    HW129850   1.945   2.863   1.333 -1.3730  0.1537  1.2525
 9552SOL    HW229851   1.994   2.974   1.423 -1.8035  1.4517 -0.0778
 9553SOL     OW29852   3.712   1.824   7.167  0.2206  0.1165  0.4624
 9553SOL    HW129853   3.696   1.883   7.093 -0.1473 -0.7292 -0.1400
 9553SOL    HW229854   3.663   1.863   7.240 -1.9723 -0.6676 -0.5136
 9554SOL     OW29855   3.006   2.627   1.734 -0.2591 -0.4321  0.1915
 9554SOL    HW129856   2.930   2.680   1.756 -0.2497 -0.0372 -0.6924
 9554SOL    HW229857   2.983   2.538   1.761 -1.3174 -0.4445 -0.7066
 9555SOL     OW29858   4.677   4.632   1.543  0.0400 -0.4143  0.1957
 9555SOL    HW129859   4.765   4.656   1.572  0.4210 -2.0502  0.4937
 9555SOL    HW229860   4.641   4.713   1.506  2.5321 -0.2493 -2.1920
 9556SOL     OW29861   3.314   7.029   2.245 -0.0060  0.5275  0.1129
 9556SOL    HW129862   3.373   7.090   2.289  0.1859  0.4813 -0.0772
 9556SOL    HW229863   3.227   7.056   2.273  0.1221  0.3387  0.7322
 9557SOL     OW29864   3.597   7.949   5.976  0.0572 -0.4242  0.3897
 9557SOL    HW129865   3.663   7.946   6.046  1.9263 -1.3691 -1.3145
 9557SOL    HW229866   3.623   8.023   5.921 -1.9887  0.9542  1.1646
 9558SOL     OW29867   5.647   1.390   2.508 -0.3341  0.2052 -0.6958
 9558SOL    HW129868   5.556   1.390   2.539  0.8201 -0.6709  3.1181
 9558SOL    HW229869   5.669   1.483   2.497 -0.9120  0.5559  0.9338
 9559SOL     OW29870   5.813   7.335   3.244 -0.0659 -0.4991  0.5959
 9559SOL    HW129871   5.761   7.291   3.312 -1.8250 -0.1885 -0.4705
 9559SOL    HW229872   5.884   7.377   3.292 -0.1043 -1.9465  1.9923
 9560SOL     OW29873   6.454   3.223   2.971  0.3151 -0.0276 -0.0531
 9560SOL    HW129874   6.541   3.229   3.010 -0.5437 -0.7255  2.1242
 9560SOL    HW229875   6.447   3.302   2.917  1.7691  0.7840  0.8541
 9561SOL     OW29876   0.214   0.094   1.038  0.1201  0.1196 -0.0431
 9561SOL    HW129877   0.181   0.023   0.983 -0.8705  1.8444 -1.7573
 9561SOL    HW229878   0.299   0.061   1.070  0.4467 -1.1844 -2.0867
 9562SOL     OW29879   6.387   8.435   5.610 -0.3067  0.2696 -0.3319
 9562SOL    HW129880   6.464   8.475   5.651  0.2333 -0.5638 -0.5106
 9562SOL    HW229881   6.313   8.485   5.644  0.3623  1.5752 -0.7381
 9563SOL     OW29882   7.702   5.290   7.090  0.0453 -0.4526  0.0117
 9563SOL    HW129883   7.688   5.197   7.109  1.9159 -1.1630 -1.7648
 9563SOL    HW229884   7.644   5.308   7.016 -1.6838  0.3470  1.4812
 9564SOL     OW29885   5.621   3.340   6.905 -0.1368 -0.0604 -0.0582
 9564SOL    HW129886   5.646   3.290   6.827  0.6642  1.0039 -0.5078
 9564SOL    HW229887   5.607   3.429   6.873  1.0772  0.6020  1.1491
 9565SOL     OW29888   6.260   1.867   6.903  0.2790  0.1269  0.2212
 9565SOL    HW129889   6.170   1.901   6.905  0.8229  1.7094 -0.9305
 9565SOL    HW229890   6.314   1.943   6.883  1.6857 -1.1972 -1.2479
 9566SOL     OW29891   3.333   8.233   6.823  0.2023  0.5629  0.1463
 9566SOL    HW129892   3.342   8.282   6.905 -0.8779  0.4097  0.3690
 9566SOL    HW229893   3.384   8.283   6.759  1.2428  0.5639  0.9486
 9567SOL     OW29894   6.247   1.258   0.148 -0.1406  0.0652 -0.2472
 9567SOL    HW129895   6.173   1.236   0.205 -1.3627  1.4283 -1.2387
 9567SOL    HW229896   6.206   1.283   0.065  1.3740  1.8122 -0.5200
 9568SOL     OW29897   7.942   7.642   1.979  0.3894 -0.0071 -0.0351
 9568SOL    HW129898   7.931   7.720   2.033 -1.3710  0.2869 -0.7538
 9568SOL    HW229899   7.888   7.576   2.021 -0.2298 -0.0529 -0.8689
 9569SOL     OW29900   1.462   0.571   6.330  0.3184 -0.1338  0.1417
 9569SOL    HW129901   1.541   0.568   6.384  0.4592  1.6518  0.0785
 9569SOL    HW229902   1.475   0.647   6.273 -1.5110  0.2825  0.2316
 9570SOL     OW29903   4.803   1.733   0.704  0.0508  0.3216  0.5578
 9570SOL    HW129904   4.845   1.650   0.683 -3.4858 -1.4347 -0.3005
 9570SOL    HW229905   4.814   1.786   0.625  3.1074  1.1586  1.4323
 9571SOL     OW29906   2.358   2.618   7.700 -0.1713  0.5351  0.1829
 9571SOL    HW129907   2.278   2.568   7.717  0.3341  0.1975  1.6630
 9571SOL    HW229908   2.422   2.583   7.761  0.4526  2.3751  0.6432
 9572SOL     OW29909   1.876   6.313   0.335  0.1552  0.0318 -0.2290
 9572SOL    HW129910   1.864   6.263   0.416  2.6886 -0.4787 -0.0895
 9572SOL    HW229911   1.788   6.317   0.297 -0.7667 -1.4280  1.5475
 9573SOL     OW29912   3.510   1.207   8.335  0.0468  0.1767  0.1859
 9573SOL    HW129913   3.429   1.257   8.343 -0.0569  0.0034  0.2218
 9573SOL    HW229914   3.484   1.125   8.295 -0.1733 -0.8169  2.2382
 9574SOL     OW29915   2.097   4.621   5.132  0.5767 -0.3843  0.2811
 9574SOL    HW129916   2.145   4.652   5.209  0.0397 -1.5051  1.0967
 9574SOL    HW229917   2.007   4.651   5.146  0.5269 -0.3904 -0.0267
 9575SOL     OW29918   4.046   2.022   5.905 -0.1305 -0.6210 -0.1664
 9575SOL    HW129919   4.007   1.960   5.968 -0.8789 -0.0468 -0.0569
 9575SOL    HW229920   4.104   2.077   5.958 -0.7220 -0.1704  0.0154
 9576SOL     OW29921   1.271   0.525   6.597  0.2255 -0.6226  0.0243
 9576SOL    HW129922   1.184   0.563   6.588 -0.2192 -1.4977  0.5293
 9576SOL    HW229923   1.331   0.600   6.589 -0.5480 -0.0473 -0.5664
 9577SOL     OW29924   0.083   2.608   4.017  0.0029  0.4084 -0.0392
 9577SOL    HW129925   0.097   2.584   4.108  0.2404 -1.4956 -0.5318
 9577SOL    HW229926  -0.011   2.595   4.004  0.0732  0.0762 -0.2204
 9578SOL     OW29927   7.848   4.610   3.377 -0.0720 -0.1191  0.0310
 9578SOL    HW129928   7.874   4.547   3.444 -0.2294 -0.3716 -0.1408
 9578SOL    HW229929   7.773   4.656   3.413 -0.0103 -0.0910  0.1230
 9579SOL     OW29930   7.329   4.124   0.555 -0.3219  0.5653  0.1507
 9579SOL    HW129931   7.282   4.202   0.527  0.2458  0.3749 -1.4191
 9579SOL    HW229932   7.422   4.148   0.546 -0.1407 -0.1814 -0.0426
 9580SOL     OW29933   3.325   5.228   1.557 -0.6257 -0.1321 -0.3504
 9580SOL    HW129934   3.419   5.222   1.570 -0.2405 -1.6575 -3.1521
 9580SOL    HW229935   3.313   5.301   1.496 -1.2944  0.1030  0.0434
 9581SOL     OW29936   7.015   5.554   1.091  0.0500  0.0810  0.3664
 9581SOL    HW129937   7.025   5.615   1.018  0.2698  0.5307  0.7607
 9581SOL    HW229938   7.076   5.483   1.071  0.3534  0.3626  0.2720
 9582SOL     OW29939   2.718   7.329   5.027 -0.1206  0.4207 -0.6299
 9582SOL    HW129940   2.733   7.266   5.097 -0.9933  0.6383 -0.2401
 9582SOL    HW229941   2.623   7.337   5.022 -0.3363 -1.9340 -3.8975
 9583SOL     OW29942   6.279   6.764   0.443  0.1811  0.5132 -0.2137
 9583SOL    HW129943   6.333   6.844   0.448  0.8937  0.0989 -1.0854
 9583SOL    HW229944   6.213   6.784   0.377  1.1427 -0.0604 -1.3729
 9584SOL     OW29945   1.038   7.174   6.510 -0.7166  0.2998 -0.3371
 9584SOL    HW129946   0.957   7.164   6.560  0.6627  0.9328  2.1571
 9584SOL    HW229947   1.061   7.266   6.519  0.2928  0.1346 -1.0533
 9585SOL     OW29948   2.050   2.525   4.533  0.3656 -0.0557  0.3017
 9585SOL    HW129949   1.994   2.461   4.489  0.8545 -0.0813 -0.3032
 9585SOL    HW229950   2.004   2.546   4.614 -0.1616 -0.6176  0.1556
 9586SOL     OW29951   7.482   0.822   7.474  0.0288  0.6735  0.5016
 9586SOL    HW129952   7.532   0.770   7.537 -0.3579  0.9514  1.0454
 9586SOL    HW229953   7.521   0.909   7.479 -0.3137  0.8149  0.7022
 9587SOL     OW29954   5.483   3.112   3.941  0.4469 -0.1188 -0.2321
 9587SOL    HW129955   5.528   3.195   3.952 -1.6572  1.2703 -1.3228
 9587SOL    HW229956   5.394   3.128   3.972 -0.4859 -1.4412 -1.9832
 9588SOL     OW29957   1.445   1.835   0.941 -0.4469  0.4628 -0.1050
 9588SOL    HW129958   1.422   1.922   0.974  0.8429  1.5168 -1.8225
 9588SOL    HW229959   1.539   1.840   0.925 -0.5390 -0.9025 -1.2107
 9589SOL     OW29960   6.444   3.053   2.537 -0.0198  0.4541 -0.0096
 9589SOL    HW129961   6.437   2.968   2.495  1.2578  0.8340 -1.0701
 9589SOL    HW229962   6.399   3.043   2.620 -0.8438 -0.9246 -0.5987
 9590SOL     OW29963   1.729   6.100   6.886 -0.6551 -0.3748 -0.7536
 9590SOL    HW129964   1.683   6.016   6.879  0.6331 -1.1467 -0.3038
 9590SOL    HW229965   1.805   6.081   6.941  0.3328  0.7904 -1.6652
 9591SOL     OW29966   3.070   0.872   0.173 -0.0204 -0.0531 -0.7078
 9591SOL    HW129967   3.117   0.846   0.253 -1.9439 -1.2360  0.0949
 9591SOL    HW229968   3.081   0.799   0.113  0.3439  0.2860 -1.0603
 9592SOL     OW29969   6.341   5.813   1.078  0.4379 -0.7032 -0.5171
 9592SOL    HW129970   6.311   5.900   1.106  0.2194 -0.4927 -1.3545
 9592SOL    HW229971   6.430   5.827   1.047 -0.0464 -0.4932 -1.8919
 9593SOL     OW29972   6.983   8.363   8.172 -0.1352  0.1686 -0.1080
 9593SOL    HW129973   7.045   8.416   8.121 -1.4901  1.9174 -0.0488
 9593SOL    HW229974   6.919   8.427   8.205 -1.5206 -1.4581  0.4918
 9594SOL     OW29975   5.757   7.071   2.865 -0.0161 -0.0668  1.0924
 9594SOL    HW129976   5.833   7.014   2.854  0.5524  1.0310 -1.0929
 9594SOL    HW229977   5.794   7.159   2.876 -0.8741  0.8020 -1.9840
 9595SOL     OW29978   0.759   5.875   8.574 -1.0634  0.0808  0.3420
 9595SOL    HW129979   0.778   5.819   8.498 -3.0472  1.0089 -0.9047
 9595SOL    HW229980   0.834   5.934   8.579  0.3095 -1.6112  0.7125
 9596SOL     OW29981   1.750   4.620   1.493 -0.4095 -0.3300 -0.4370
 9596SOL    HW129982   1.829   4.608   1.441 -0.6087 -1.5376 -0.5004
 9596SOL    HW229983   1.779   4.617   1.584 -0.5070 -2.1576 -0.4230
 9597SOL     OW29984   1.033   6.261   7.176  0.2946  0.4948  0.3862
 9597SOL    HW129985   0.992   6.300   7.254 -1.9257 -0.7363 -0.0935
 9597SOL    HW229986   1.012   6.322   7.105  1.4851  1.1191  0.5428
 9598SOL     OW29987   7.372   8.511   2.809 -0.0483 -0.0849 -0.0496
 9598SOL    HW129988   7.316   8.584   2.785 -0.8254 -0.9519 -0.9437
 9598SOL    HW229989   7.345   8.439   2.752  2.5668 -0.3046 -1.1459
 9599SOL     OW29990   4.900   6.606   6.105 -0.6072  0.1854 -0.1523
 9599SOL    HW129991   4.987   6.580   6.077 -0.1121 -0.7483  2.0488
 9599SOL    HW229992   4.860   6.645   6.027  1.7247  0.5684 -1.2316
 9600SOL     OW29993   6.840   0.339   2.724  0.0804 -0.2815 -0.2312
 9600SOL    HW129994   6.927   0.378   2.722  0.3685 -0.8169  1.0400
 9600SOL    HW229995   6.856   0.246   2.710 -0.0430 -0.6911  1.9618
 9601SOL     OW29996   7.332   0.001   1.799 -0.5354 -0.3295  0.0838
 9601SOL    HW129997   7.322  -0.025   1.890  1.8329  2.2862  1.2426
 9601SOL    HW229998   7.243   0.012   1.766 -1.4862  0.8519  2.8181
 9602SOL     OW29999   4.144   0.233   0.991  0.0985 -0.0959  0.5288
 9602SOL    HW130000   4.108   0.316   1.024 -1.2192 -0.1001 -0.8312
 9602SOL    HW230001   4.074   0.170   1.002 -0.2320 -0.2054 -1.7630
 9603SOL     OW30002   7.661   8.419   7.167 -0.0165  0.3055  0.7758
 9603SOL    HW130003   7.606   8.489   7.203  0.0238 -0.0554  1.5545
 9603SOL    HW230004   7.711   8.387   7.241  0.8056  0.2067  0.1966
 9604SOL     OW30005   1.016   7.324   0.170  0.4362  0.9552 -0.2296
 9604SOL    HW130006   0.953   7.371   0.113 -2.8728 -0.3392  2.0562
 9604SOL    HW230007   1.041   7.247   0.119 -0.3457  1.1738 -0.9771
 9605SOL     OW30008   5.645   7.355   2.148 -0.1728  0.0386 -0.2262
 9605SOL    HW130009   5.670   7.420   2.083 -0.7283  1.3630  0.8372
 9605SOL    HW230010   5.728   7.328   2.188  0.1678 -0.7638 -1.4247
 9606SOL     OW30011   1.400   5.147   4.546  0.7291  1.1821  0.7366
 9606SOL    HW130012   1.385   5.067   4.597  0.0475  1.5919  1.1992
 9606SOL    HW230013   1.338   5.141   4.473  2.4290  0.0893 -0.6917
 9607SOL     OW30014   1.596   5.309   1.388 -0.5053  1.0014 -0.4996
 9607SOL    HW130015   1.613   5.223   1.427  1.8746  1.1616 -0.9841
 9607SOL    HW230016   1.578   5.291   1.296 -1.7560  0.9245 -0.2518
 9608SOL     OW30017   6.970   2.274   2.827 -0.6049 -0.0172 -0.1354
 9608SOL    HW130018   7.045   2.221   2.856 -1.4584 -1.0049  0.3291
 9608SOL    HW230019   6.932   2.308   2.908 -1.2625 -0.3663 -0.2944
 9609SOL     OW30020   6.035   0.634   3.297 -0.1503 -0.1133  0.6264
 9609SOL    HW130021   5.974   0.666   3.231 -1.2606  0.8926  2.0855
 9609SOL    HW230022   6.057   0.545   3.268  0.8386  0.8930 -2.0363
 9610SOL     OW30023   1.779   7.519   0.423 -0.0551 -0.1563 -0.2092
 9610SOL    HW130024   1.725   7.585   0.379  0.0772  0.0425 -0.0761
 9610SOL    HW230025   1.836   7.485   0.355 -0.6744 -0.7114 -0.4610
 9611SOL     OW30026   6.761   8.457   5.587  0.3334 -0.0680 -0.4528
 9611SOL    HW130027   6.745   8.379   5.640  1.2519  0.1667  0.1983
 9611SOL    HW230028   6.680   8.507   5.595  1.0274  0.8285  2.2743
 9612SOL     OW30029   8.453   2.681   8.377 -0.2105 -0.2373  0.3361
 9612SOL    HW130030   8.470   2.696   8.470  0.6879 -0.2216  0.1777
 9612SOL    HW230031   8.537   2.655   8.341 -0.6000 -0.4691 -0.4349
 9613SOL     OW30032   0.912   8.050   6.482 -0.3989  0.6352  0.2099
 9613SOL    HW130033   0.832   8.057   6.533 -0.3694 -0.7592  0.4844
 9613SOL    HW230034   0.980   8.032   6.547 -0.2979 -0.7714 -0.2622
 9614SOL     OW30035   4.678   8.108   0.426 -0.8115 -0.6778  0.2468
 9614SOL    HW130036   4.683   8.184   0.367  2.4595 -0.3748  0.7163
 9614SOL    HW230037   4.584   8.089   0.432 -1.5459  1.4303 -2.2596
 9615SOL     OW30038   8.540   0.364   1.652 -0.1342  0.6100 -0.5892
 9615SOL    HW130039   8.628   0.394   1.628  0.4365 -0.8801 -0.4798
 9615SOL    HW230040   8.503   0.330   1.570 -0.0950  0.0298 -0.3693
 9616SOL     OW30041   6.551   3.713   5.894 -0.1318 -0.3161 -0.5587
 9616SOL    HW130042   6.512   3.708   5.981 -1.1385  1.2257 -0.8771
 9616SOL    HW230043   6.521   3.797   5.859  0.4196 -0.8071 -2.3214
 9617SOL     OW30044   3.734   1.826   5.131  0.7643  0.2014  0.3406
 9617SOL    HW130045   3.653   1.778   5.114  0.4595  0.5987  0.6523
 9617SOL    HW230046   3.725   1.857   5.221  0.7476  1.2429 -0.0051
 9618SOL     OW30047   0.424   7.099   3.429  0.0438 -0.3057  0.0647
 9618SOL    HW130048   0.449   7.191   3.432  0.0474 -0.3031 -0.0419
 9618SOL    HW230049   0.337   7.096   3.470 -1.3368  0.2192 -2.5737
 9619SOL     OW30050   6.079   4.945   3.988  0.9860  0.0900 -0.2967
 9619SOL    HW130051   6.150   4.919   3.930 -0.0104 -1.4837 -0.8887
 9619SOL    HW230052   6.098   4.903   4.072  1.7173  1.2364  0.1261
 9620SOL     OW30053   0.093   1.229   1.633  0.4667  0.3920 -0.1143
 9620SOL    HW130054   0.091   1.249   1.726  3.0859 -3.4323  0.9989
 9620SOL    HW230055   0.002   1.205   1.612 -0.2419  1.6491  1.2949
 9621SOL     OW30056   4.970   4.902   8.524 -0.1135 -0.2074  0.1712
 9621SOL    HW130057   5.052   4.895   8.573 -0.6699 -1.5334  0.9662
 9621SOL    HW230058   4.937   4.812   8.519 -0.2500 -0.0828 -2.3662
 9622SOL     OW30059   3.517   8.355   3.333 -0.6907 -0.2844 -0.6220
 9622SOL    HW130060   3.525   8.281   3.393  0.1977  0.5855  0.3711
 9622SOL    HW230061   3.439   8.402   3.363 -1.1756 -0.7194 -1.1686
 9623SOL     OW30062   5.556   1.850   3.618 -0.0795  0.5623 -0.2281
 9623SOL    HW130063   5.582   1.867   3.708 -1.1216 -0.0762  0.2122
 9623SOL    HW230064   5.525   1.760   3.618 -1.4541  0.9963 -0.8723
 9624SOL     OW30065   2.200   4.669   4.404  0.2771  0.0839  0.0104
 9624SOL    HW130066   2.146   4.628   4.471 -1.2188  0.1958 -1.0864
 9624SOL    HW230067   2.160   4.755   4.389 -0.7260 -0.7473 -2.4863
 9625SOL     OW30068   2.236   6.362   3.150  0.2442  0.2046 -0.1322
 9625SOL    HW130069   2.279   6.345   3.066 -0.3224  1.8543 -0.8096
 9625SOL    HW230070   2.304   6.403   3.204  0.2881  0.2389 -0.2134
 9626SOL     OW30071   1.546   1.567   3.682  0.0649 -0.0414  0.2271
 9626SOL    HW130072   1.547   1.556   3.777 -1.2980 -0.2319  0.2407
 9626SOL    HW230073   1.511   1.485   3.649  0.8972 -0.1221 -0.4793
 9627SOL     OW30074   8.176   3.903   6.568  0.6956 -0.0991 -0.2133
 9627SOL    HW130075   8.145   3.829   6.620 -0.8944  2.7650  3.2856
 9627SOL    HW230076   8.115   3.907   6.494 -1.3043 -0.3476  1.3484
 9628SOL     OW30077   1.801   7.807   7.174  0.1053  1.0917  0.1535
 9628SOL    HW130078   1.735   7.839   7.113  0.6630  0.1219 -0.9971
 9628SOL    HW230079   1.822   7.883   7.229 -1.5102  1.5699  0.1591
 9629SOL     OW30080   5.457   2.225   0.532 -0.3343 -0.5309  0.0934
 9629SOL    HW130081   5.402   2.151   0.507 -0.5463 -0.7849  1.2851
 9629SOL    HW230082   5.533   2.185   0.574  0.1756 -0.1190 -0.4087
 9630SOL     OW30083   1.733   4.876   6.048  0.0295 -0.3586  0.4393
 9630SOL    HW130084   1.666   4.858   5.982 -1.9270  1.3194  1.8565
 9630SOL    HW230085   1.805   4.916   5.998 -0.9637 -0.0725 -0.8240
 9631SOL     OW30086   6.068   3.316   5.923  0.2568 -1.2594 -0.2513
 9631SOL    HW130087   6.036   3.306   6.013  0.8230 -0.9010 -0.0040
 9631SOL    HW230088   5.992   3.346   5.874  0.4117  0.5686  0.5268
 9632SOL     OW30089   5.879   5.812   1.598 -0.4693 -0.3911 -0.0782
 9632SOL    HW130090   5.822   5.737   1.582  1.4115 -1.6051 -1.6396
 9632SOL    HW230091   5.961   5.774   1.628  0.2551  1.1142 -0.0387
 9633SOL     OW30092   1.304   5.453   3.863 -0.3991  0.4890 -0.4779
 9633SOL    HW130093   1.292   5.543   3.893 -0.7750  0.2419  0.1167
 9633SOL    HW230094   1.230   5.405   3.899  0.8359 -0.4722  0.8861
 9634SOL     OW30095   3.237   4.834   5.458  0.3711  0.4437 -0.0280
 9634SOL    HW130096   3.201   4.746   5.470 -0.1620  0.7806  0.9413
 9634SOL    HW230097   3.247   4.843   5.363  0.1394 -0.5425 -0.1567
 9635SOL     OW30098   3.320   7.852   7.871 -0.1712 -0.0975  0.1014
 9635SOL    HW130099   3.410   7.828   7.891  0.6226  1.5221 -1.2749
 9635SOL    HW230100   3.293   7.791   7.802  0.6313  0.7227 -0.9640
 9636SOL     OW30101   5.202   0.017   2.482  0.2635 -0.2662  0.2814
 9636SOL    HW130102   5.124   0.053   2.438  1.2649  1.0208 -0.5171
 9636SOL    HW230103   5.240   0.093   2.527  0.6686 -1.0449  1.2861
 9637SOL     OW30104   5.255   1.108   4.303 -0.5727 -0.0134 -0.3431
 9637SOL    HW130105   5.290   1.040   4.246  2.4567 -0.7747  2.1323
 9637SOL    HW230106   5.311   1.184   4.286  0.1093 -0.1307  1.2251
 9638SOL     OW30107   5.358   6.648   7.846 -0.2196  0.3346  0.1589
 9638SOL    HW130108   5.389   6.611   7.764 -0.6396 -0.0475  0.1655
 9638SOL    HW230109   5.425   6.626   7.910  0.4458  1.2393 -0.2207
 9639SOL     OW30110   5.574   5.265   6.678  0.2836 -0.0708 -0.1049
 9639SOL    HW130111   5.490   5.222   6.665  0.8431 -1.5285  0.8362
 9639SOL    HW230112   5.595   5.304   6.593 -0.4466 -1.3031 -0.8773
 9640SOL     OW30113   7.227   2.874   8.604 -0.4931 -0.2798 -0.3015
 9640SOL    HW130114   7.301   2.933   8.615  0.0675 -1.2046  1.2175
 9640SOL    HW230115   7.252   2.819   8.529  0.0157 -0.0927 -0.2766
 9641SOL     OW30116   8.362   3.365   7.537  0.1388  0.1212 -0.4822
 9641SOL    HW130117   8.358   3.271   7.554  0.3828  0.0550 -0.7739
 9641SOL    HW230118   8.305   3.405   7.603 -0.3351 -0.2665 -0.6592
 9642SOL     OW30119   7.209   6.048   7.568 -0.2858  0.2041 -0.8675
 9642SOL    HW130120   7.163   5.969   7.594  4.6201 -1.8522  3.1858
 9642SOL    HW230121   7.152   6.120   7.596 -2.1488 -2.0094  1.4996
 9643SOL     OW30122   5.090   5.702   7.145 -0.0248 -0.2503 -0.7159
 9643SOL    HW130123   5.022   5.741   7.090 -0.2882 -0.8598 -0.8364
 9643SOL    HW230124   5.166   5.758   7.132 -0.4733  0.3884 -0.6527
 9644SOL     OW30125   2.067   7.804   4.819  0.6469  0.2295  0.2260
 9644SOL    HW130126   2.020   7.731   4.779 -2.5066  1.1540  1.9349
 9644SOL    HW230127   2.078   7.868   4.748  0.6421 -0.6011 -0.5410
 9645SOL     OW30128   4.076   3.483   2.811  0.4089 -0.3521  0.0452
 9645SOL    HW130129   4.048   3.460   2.899  0.0705 -0.8512 -0.1850
 9645SOL    HW230130   4.160   3.440   2.799 -0.3292 -1.7088 -0.4665
 9646SOL     OW30131   8.121   7.820   2.466 -0.1130  0.0348  0.0572
 9646SOL    HW130132   8.083   7.736   2.490  0.8958  0.3186  3.1326
 9646SOL    HW230133   8.154   7.808   2.377  0.2438 -2.8973  0.5087
 9647SOL     OW30134   3.964   7.186   7.825  0.3245 -0.1478  0.0096
 9647SOL    HW130135   3.932   7.258   7.880 -0.9657 -0.8051  0.1696
 9647SOL    HW230136   4.034   7.146   7.877  0.4561  0.4581  0.3052
 9648SOL     OW30137   6.265   4.965   1.495 -0.2595 -0.5397 -0.3838
 9648SOL    HW130138   6.323   5.026   1.541 -0.3339  0.0877 -1.0892
 9648SOL    HW230139   6.307   4.953   1.409 -0.1802 -1.5931 -0.2120
 9649SOL     OW30140   6.821   8.377   2.017  0.0338  0.8093  0.0337
 9649SOL    HW130141   6.851   8.292   2.049  2.0216  1.3628 -0.2077
 9649SOL    HW230142   6.787   8.360   1.929  1.1560  0.3764 -0.3279
 9650SOL     OW30143   4.665   0.972   2.847 -0.1421  0.0583 -0.3022
 9650SOL    HW130144   4.647   0.961   2.753  2.4851  0.4089 -0.9243
 9650SOL    HW230145   4.672   0.882   2.880  0.2679 -0.0886 -0.7630
 9651SOL     OW30146   8.540   7.386   0.189  0.0694 -0.3401 -0.0346
 9651SOL    HW130147   8.478   7.367   0.260  0.0512 -0.7339 -0.1497
 9651SOL    HW230148   8.576   7.472   0.210 -1.1250  0.2735 -0.3940
 9652SOL     OW30149   7.763   0.222   6.568 -0.2560 -0.0469 -0.3244
 9652SOL    HW130150   7.827   0.287   6.537  0.5942 -0.0816  1.2552
 9652SOL    HW230151   7.691   0.274   6.604  0.0982  0.0292  0.2864
 9653SOL     OW30152   8.143   1.945   6.160  0.2973  0.9221 -0.0025
 9653SOL    HW130153   8.138   1.992   6.077 -0.3993 -1.6762 -1.5179
 9653SOL    HW230154   8.127   1.854   6.138  0.8832  0.0040  2.8989
 9654SOL     OW30155   4.082   1.665   2.498  0.2503 -0.0389  0.1525
 9654SOL    HW130156   4.126   1.610   2.562  0.6542  0.1866  0.0684
 9654SOL    HW230157   4.018   1.714   2.549  0.5496  0.1183  0.3803
 9655SOL     OW30158   4.031   8.330   2.293  0.0596  0.5776 -0.3944
 9655SOL    HW130159   3.986   8.409   2.263  1.3456  1.5718  0.1947
 9655SOL    HW230160   4.014   8.327   2.387 -0.4275 -0.1644 -0.4984
 9656SOL     OW30161   6.969   6.184   8.431  0.4030  0.9134  1.0660
 9656SOL    HW130162   6.900   6.237   8.390 -0.5186 -1.8070 -1.1960
 9656SOL    HW230163   6.925   6.104   8.460  2.3091 -0.1899  1.0742
 9657SOL     OW30164   4.245   7.866   0.582  0.9520 -0.0831  0.4374
 9657SOL    HW130165   4.314   7.803   0.605  0.1500 -1.0423  0.2728
 9657SOL    HW230166   4.252   7.875   0.487 -1.1832 -2.7231 -0.0979
 9658SOL     OW30167   5.985   5.767   2.814 -0.5327 -0.1215  0.6464
 9658SOL    HW130168   5.902   5.719   2.816 -1.9001  2.0275  0.0464
 9658SOL    HW230169   5.982   5.821   2.893  0.5207 -0.3340  0.8386
 9659SOL     OW30170   6.601   0.596   5.389 -0.0718  0.2091 -0.1689
 9659SOL    HW130171   6.505   0.589   5.390 -0.0831 -0.0474 -1.4022
 9659SOL    HW230172   6.621   0.644   5.308  0.8347  0.4153  0.1670
 9660SOL     OW30173   0.306   1.252   5.468  0.3985 -0.1101 -0.0969
 9660SOL    HW130174   0.300   1.166   5.510 -0.4377 -0.8993 -1.7146
 9660SOL    HW230175   0.318   1.232   5.375  2.5129  1.5449 -0.2738
 9661SOL     OW30176   8.419   8.379   8.139  0.3733 -0.6319 -0.2576
 9661SOL    HW130177   8.437   8.449   8.202  1.7673  0.1776 -1.4829
 9661SOL    HW230178   8.342   8.410   8.091 -1.8833 -2.1080  2.1689
 9662SOL     OW30179   2.252   8.298   0.354 -0.4027 -1.1662 -0.0952
 9662SOL    HW130180   2.267   8.245   0.276 -0.4507  0.2618 -1.1301
 9662SOL    HW230181   2.331   8.288   0.406  0.4237 -0.7126 -1.2247
 9663SOL     OW30182   3.869   5.092   1.666 -0.4463 -0.0664 -0.1647
 9663SOL    HW130183   3.958   5.079   1.635 -0.5136  1.6033 -1.1713
 9663SOL    HW230184   3.817   5.103   1.586 -1.8441 -2.4269  0.3342
 9664SOL     OW30185   1.944   6.265   7.293 -0.3496  0.2142 -0.2281
 9664SOL    HW130186   1.881   6.222   7.351 -0.9775  1.2826 -0.0843
 9664SOL    HW230187   2.030   6.248   7.334 -0.6120 -0.5759  0.0113
 9665SOL     OW30188   2.953   2.631   8.003  0.5189  0.0285 -0.6295
 9665SOL    HW130189   3.002   2.564   8.052  0.1221  0.1653 -0.0319
 9665SOL    HW230190   3.015   2.702   7.990 -0.0656  1.2071  2.1314
 9666SOL     OW30191   7.308   3.709   7.295  0.6579  0.3916 -0.0644
 9666SOL    HW130192   7.241   3.705   7.227  0.6762  2.2286 -0.2468
 9666SOL    HW230193   7.378   3.653   7.263 -0.3457 -0.7467 -0.3544
 9667SOL     OW30194   4.881   3.691   0.237  0.1848  0.3654 -0.0021
 9667SOL    HW130195   4.902   3.625   0.171  0.2288  0.6683 -0.2909
 9667SOL    HW230196   4.964   3.706   0.282  0.1038 -0.0111  0.2800
 9668SOL     OW30197   7.630   0.742   3.754  0.2144  0.0559  0.4084
 9668SOL    HW130198   7.680   0.754   3.673 -0.8358 -0.4790 -0.3458
 9668SOL    HW230199   7.660   0.658   3.789 -0.4818 -0.5268 -0.3250
 9669SOL     OW30200   4.112   6.756   1.530 -0.8059  0.1589 -0.0682
 9669SOL    HW130201   4.168   6.807   1.472 -0.6684 -1.8002 -1.7484
 9669SOL    HW230202   4.158   6.757   1.614 -0.8557  2.7853  0.0040
 9670SOL     OW30203   6.689   5.080   7.521  0.2078 -0.0292  0.4246
 9670SOL    HW130204   6.722   5.161   7.559 -0.5674  0.3531  0.2928
 9670SOL    HW230205   6.627   5.046   7.586 -0.5306  0.2201 -0.1470
 9671SOL     OW30206   7.757   3.137   0.155  0.0984 -0.2744 -0.0117
 9671SOL    HW130207   7.834   3.116   0.208  0.0687  0.8939  0.5302
 9671SOL    HW230208   7.776   3.100   0.069  0.4612 -1.5852  0.6131
 9672SOL     OW30209   2.181   3.300   0.009  0.3227  0.7863 -0.6442
 9672SOL    HW130210   2.086   3.286   0.011  0.2671  0.8444 -1.8952
 9672SOL    HW230211   2.191   3.392  -0.016  0.7204  1.0500  0.4238
 9673SOL     OW30212   0.493   2.855   7.322 -0.6625  0.1346  0.1294
 9673SOL    HW130213   0.517   2.827   7.234 -0.9821  0.2196  0.0155
 9673SOL    HW230214   0.541   2.937   7.335  0.6373 -0.6767  0.6349
 9674SOL     OW30215   2.118   3.384   5.451  0.1218 -0.2310 -0.7600
 9674SOL    HW130216   2.064   3.451   5.409  1.2288  0.0673 -1.7349
 9674SOL    HW230217   2.096   3.392   5.544 -0.8921  0.4445 -1.0396
 9675SOL     OW30218   0.823   2.266   7.797 -0.2234  0.1454  0.2360
 9675SOL    HW130219   0.795   2.353   7.768 -0.0721 -0.3278 -1.4521
 9675SOL    HW230220   0.742   2.218   7.809 -0.2944  0.4007  0.8386
 9676SOL     OW30221   7.929   5.772   7.060  0.3607 -0.3716 -0.4221
 9676SOL    HW130222   8.006   5.822   7.087  0.3967 -0.5961 -0.1081
 9676SOL    HW230223   7.860   5.837   7.053  0.2329 -0.3826  0.6867
 9677SOL     OW30224   0.336   4.784   4.004 -0.4189 -0.4641 -0.9773
 9677SOL    HW130225   0.261   4.773   3.945  1.3643  1.9688 -4.0084
 9677SOL    HW230226   0.391   4.849   3.960  1.6132  0.7855  2.9962
 9678SOL     OW30227   4.942   1.884   8.117 -0.1410  0.4195 -0.2343
 9678SOL    HW130228   4.901   1.969   8.134  1.5415  0.9530  1.4754
 9678SOL    HW230229   5.004   1.873   8.188 -0.7591 -2.5815 -0.0411
 9679SOL     OW30230   3.715   1.286   7.071  0.1786  0.1931  0.0045
 9679SOL    HW130231   3.663   1.366   7.069 -2.9739 -1.7114 -1.3579
 9679SOL    HW230232   3.776   1.294   6.998 -1.8254  0.4027 -1.7310
 9680SOL     OW30233   3.038   0.383   7.768 -0.0565 -0.6035  0.1438
 9680SOL    HW130234   3.043   0.306   7.825 -1.0416 -0.6184  0.2299
 9680SOL    HW230235   2.956   0.425   7.792  0.6877  0.7572  0.4346
 9681SOL     OW30236   3.042   4.880   5.697 -0.1619  0.1918 -0.2207
 9681SOL    HW130237   2.949   4.872   5.674  0.0790  1.4188 -1.7841
 9681SOL    HW230238   3.088   4.868   5.614  1.0998 -0.3157  0.5178
 9682SOL     OW30239   3.318   8.342   8.055 -0.1270  0.4458  0.1146
 9682SOL    HW130240   3.271   8.272   8.100 -1.5425  0.7070 -0.8931
 9682SOL    HW230241   3.321   8.414   8.118  1.4622 -0.5252  1.2079
 9683SOL     OW30242   3.844   6.850   1.620 -0.0904  0.2320 -0.2410
 9683SOL    HW130243   3.934   6.824   1.602  0.3153  2.2600 -1.4195
 9683SOL    HW230244   3.821   6.803   1.700  1.9298 -0.5111 -0.0428
 9684SOL     OW30245   8.322   1.448   3.359  0.2768 -0.3844  0.7089
 9684SOL    HW130246   8.341   1.477   3.270  1.8680  2.1611  1.7545
 9684SOL    HW230247   8.385   1.378   3.375 -1.1055 -2.0054 -0.6441
 9685SOL     OW30248   5.724   6.652   4.163 -0.1034 -0.4037  0.1403
 9685SOL    HW130249   5.802   6.616   4.120  1.1570  0.6535  1.4638
 9685SOL    HW230250   5.730   6.746   4.150 -1.6197 -0.3568 -0.4254
 9686SOL     OW30251   7.091   3.590   7.124 -0.5894 -0.6198  0.4216
 9686SOL    HW130252   7.127   3.508   7.090 -0.0287 -0.7060  1.1897
 9686SOL    HW230253   6.996   3.578   7.122 -0.4993 -1.6133  1.2808
 9687SOL     OW30254   3.017   1.105   0.666  0.1124 -0.1325  0.3010
 9687SOL    HW130255   3.065   1.096   0.749  2.1304 -1.2301 -0.8851
 9687SOL    HW230256   3.083   1.136   0.604 -0.6910 -1.6686 -1.4249
 9688SOL     OW30257   7.592   0.218   4.173  0.2080 -0.0662 -0.0146
 9688SOL    HW130258   7.518   0.177   4.129  0.4067 -1.0759  0.5607
 9688SOL    HW230259   7.624   0.152   4.234  0.0104  1.2457  1.5867
 9689SOL     OW30260   2.843   7.713   4.275  0.2280 -0.2204  0.3653
 9689SOL    HW130261   2.939   7.712   4.277  0.2350  0.0306  0.2096
 9689SOL    HW230262   2.818   7.749   4.361  0.3027  0.7686 -0.0097
 9690SOL     OW30263   0.654   2.764   1.327 -0.0944 -0.2243 -0.2970
 9690SOL    HW130264   0.579   2.745   1.271 -0.1426  0.3883 -0.4531
 9690SOL    HW230265   0.696   2.840   1.286  1.5570 -1.5235 -1.1244
 9691SOL     OW30266   0.120   3.074   4.190  0.2786  0.3344 -0.3098
 9691SOL    HW130267   0.133   3.070   4.095  0.1842  0.0204 -0.3098
 9691SOL    HW230268   0.207   3.095   4.224  0.6291 -0.9386 -0.3722
 9692SOL     OW30269   8.509   8.036   7.459 -0.0077 -0.4132 -0.6593
 9692SOL    HW130270   8.450   8.052   7.533  0.1552 -1.2469 -0.3470
 9692SOL    HW230271   8.464   7.971   7.406 -0.1210  0.1832 -1.3043
 9693SOL     OW30272   5.269   0.402   2.920  0.0817 -0.0625  0.0892
 9693SOL    HW130273   5.318   0.473   2.962 -0.6944  0.6633 -0.2106
 9693SOL    HW230274   5.272   0.424   2.827  2.3222 -1.9828 -0.3985
 9694SOL     OW30275   4.605   7.673   1.019 -0.3317 -0.4137 -0.0574
 9694SOL    HW130276   4.539   7.671   1.088 -0.3297 -0.7300 -0.0610
 9694SOL    HW230277   4.555   7.686   0.938 -0.2832  0.5338  0.0604
 9695SOL     OW30278   2.537   4.486   6.502  0.0315  0.0347  0.5581
 9695SOL    HW130279   2.538   4.395   6.471  0.1259  0.6691 -1.4484
 9695SOL    HW230280   2.621   4.522   6.471 -0.4714  1.0943  0.3961
 9696SOL     OW30281   7.471   1.838   6.788  0.2332 -0.0683 -0.7895
 9696SOL    HW130282   7.541   1.780   6.759  0.7143 -0.1084  0.3750
 9696SOL    HW230283   7.476   1.914   6.730  0.9478 -0.2737 -1.0025
 9697SOL     OW30284   7.896   5.593   6.858  0.1077 -0.0765 -0.3365
 9697SOL    HW130285   7.893   5.659   6.788  1.3806 -0.2936 -0.6139
 9697SOL    HW230286   7.919   5.643   6.936 -0.1668 -0.0122 -0.2937
 9698SOL     OW30287   3.917   0.213   4.611 -0.1504  0.0649 -0.0419
 9698SOL    HW130288   3.874   0.230   4.527  0.6996 -0.6132 -0.6267
 9698SOL    HW230289   3.888   0.125   4.635 -0.2246  0.1758  0.2760
 9699SOL     OW30290   6.266   1.955   6.003  0.3124  0.6429 -0.3164
 9699SOL    HW130291   6.225   1.913   5.928 -0.5040  0.2658  0.3237
 9699SOL    HW230292   6.207   1.936   6.076  2.2211 -0.9883  0.9102
 9700SOL     OW30293   6.409   3.934   2.031 -0.6534  0.5100  0.3498
 9700SOL    HW130294   6.432   3.891   2.113 -0.3645  2.1526  1.1677
 9700SOL    HW230295   6.314   3.938   2.032 -0.6528  0.4792  0.5615
 9701SOL     OW30296   4.767   5.198   3.671  0.3421 -0.7591  0.6635
 9701SOL    HW130297   4.793   5.174   3.759 -0.2265 -0.7266  0.8456
 9701SOL    HW230298   4.755   5.293   3.674  2.7284 -0.3769 -0.0935
 9702SOL     OW30299   2.710   3.260   7.106 -0.3433 -0.1335  0.0890
 9702SOL    HW130300   2.621   3.295   7.100  0.1023  1.0469 -0.0496
 9702SOL    HW230301   2.758   3.308   7.038  0.3180 -0.9946 -0.0574
 9703SOL     OW30302   0.795   6.651   5.885  0.2452  0.0384  0.0855
 9703SOL    HW130303   0.791   6.564   5.923 -1.3738 -0.0596 -0.2399
 9703SOL    HW230304   0.722   6.699   5.926 -1.5120 -0.0340 -2.6670
 9704SOL     OW30305   7.217   1.721   1.912  0.6290 -0.4805 -0.1792
 9704SOL    HW130306   7.255   1.805   1.938 -1.0431 -0.2749  1.7697
 9704SOL    HW230307   7.232   1.664   1.987  0.3384 -1.4709 -0.8574
 9705SOL     OW30308   3.722   5.121   0.074 -0.1062  0.0269  0.1599
 9705SOL    HW130309   3.764   5.042   0.109 -0.9144 -0.2610  0.4991
 9705SOL    HW230310   3.697   5.172   0.151 -0.0344  0.3853 -0.0504
 9706SOL     OW30311   8.415   3.440   2.619 -0.0147 -0.8084  0.1745
 9706SOL    HW130312   8.490   3.416   2.564  0.1486  0.8430 -0.4070
 9706SOL    HW230313   8.375   3.514   2.573 -0.4053  0.0521  1.8104
 9707SOL     OW30314   5.969   5.269   8.416 -0.3962 -0.0921  0.2794
 9707SOL    HW130315   5.919   5.198   8.376 -1.3644  0.8562 -0.2360
 9707SOL    HW230316   5.904   5.334   8.441  0.5703  1.3057 -0.6820
 9708SOL     OW30317   2.993   6.136   7.436 -0.1500  0.0386  0.6889
 9708SOL    HW130318   2.912   6.137   7.385 -1.6708 -0.0368  2.9732
 9708SOL    HW230319   3.005   6.044   7.459  0.8652 -0.0151 -0.0026
 9709SOL     OW30320   3.950   0.162   4.000 -0.0934  0.2692 -0.2067
 9709SOL    HW130321   3.895   0.086   4.019 -0.4726  1.2801  3.2194
 9709SOL    HW230322   3.890   0.236   3.997  0.7993  1.1433  1.9076
 9710SOL     OW30323   8.269   2.867   8.492 -0.1779  0.1312 -0.6244
 9710SOL    HW130324   8.278   2.772   8.478 -2.5714 -0.5274  1.3582
 9710SOL    HW230325   8.358   2.901   8.488  1.0718 -2.5999  0.8806
 9711SOL     OW30326   3.970   0.005   0.939  0.5621 -0.2130 -0.1687
 9711SOL    HW130327   4.029  -0.070   0.944  0.4462 -0.3242 -0.4536
 9711SOL    HW230328   3.900  -0.016   1.001 -0.5178 -1.2781 -1.6417
 9712SOL     OW30329   8.176   0.861   8.408 -0.4338 -0.2090  0.2090
 9712SOL    HW130330   8.094   0.814   8.423 -0.7247  0.2953  0.2203
 9712SOL    HW230331   8.196   0.845   8.316  0.5364 -2.0163  0.6838
 9713SOL     OW30332   1.244   2.511   6.831 -0.1326 -1.1583 -0.4789
 9713SOL    HW130333   1.335   2.504   6.858  0.3466  0.1649 -1.6277
 9713SOL    HW230334   1.196   2.528   6.912  1.0215  0.9004 -0.1513
 9714SOL     OW30335   4.977   7.760   4.644 -0.1396 -0.1575  0.3761
 9714SOL    HW130336   5.002   7.835   4.698  0.4433  0.2718 -0.4594
 9714SOL    HW230337   4.905   7.792   4.590  1.0034  0.2640 -0.9629
 9715SOL     OW30338   6.331   1.969   5.608  0.1019 -0.3483 -0.5844
 9715SOL    HW130339   6.299   1.913   5.678  1.1218  2.5032  2.4639
 9715SOL    HW230340   6.405   1.921   5.570 -1.0155 -2.3497 -0.3139
 9716SOL     OW30341   6.180   3.391   3.463  0.3333 -0.6380  0.3124
 9716SOL    HW130342   6.241   3.417   3.533  0.1692 -2.2638  1.1067
 9716SOL    HW230343   6.098   3.435   3.486  0.4384 -0.6952  0.8190
 9717SOL     OW30344   0.135   1.985   8.203 -0.1671 -0.4174  0.3201
 9717SOL    HW130345   0.224   1.965   8.231  1.3338  2.8447 -1.5091
 9717SOL    HW230346   0.099   2.037   8.275  0.5916  0.8131 -0.1487
 9718SOL     OW30347   4.914   4.501   4.846 -0.2511 -0.0955  0.4319
 9718SOL    HW130348   4.973   4.491   4.771  0.4320  0.2106  0.9179
 9718SOL    HW230349   4.943   4.582   4.889 -1.8970  0.8268 -0.0866
 9719SOL     OW30350   1.222   0.022   6.477 -0.3840 -0.1496 -0.0870
 9719SOL    HW130351   1.260  -0.065   6.466 -1.2149 -0.5011 -0.2751
 9719SOL    HW230352   1.295   0.077   6.506  0.3755 -0.6911 -0.9054
 9720SOL     OW30353   8.145   4.814   7.417  0.7615 -0.3378 -0.2103
 9720SOL    HW130354   8.202   4.806   7.341  2.6366 -0.4886  1.1379
 9720SOL    HW230355   8.148   4.728   7.458 -1.4357 -0.7251 -0.7004
 9721SOL     OW30356   8.266   5.748   6.003 -0.1592 -0.4471 -0.3550
 9721SOL    HW130357   8.290   5.739   5.911  2.3502 -1.6168  0.3490
 9721SOL    HW230358   8.338   5.798   6.042 -0.1357 -1.7181  1.3526
 9722SOL     OW30359   3.962   3.177   4.383  0.4413 -0.2990 -0.0445
 9722SOL    HW130360   3.913   3.138   4.456  1.3196  0.0755  0.7610
 9722SOL    HW230361   3.955   3.271   4.397  2.3230 -0.2423  0.7420
 9723SOL     OW30362   7.872   2.068   4.163 -0.0649  0.1104  0.6984
 9723SOL    HW130363   7.906   2.027   4.242 -1.2298 -1.9644  0.1962
 9723SOL    HW230364   7.901   2.011   4.092  0.3387  1.5288 -0.3194
 9724SOL     OW30365   8.034   8.243   2.393 -0.0928  0.2499  0.0110
 9724SOL    HW130366   8.002   8.281   2.311  0.9434  1.2510  0.0454
 9724SOL    HW230367   8.037   8.317   2.454  1.1647 -0.0410  0.3323
 9725SOL     OW30368   8.068   0.184   2.538  0.3281  0.7813  0.0025
 9725SOL    HW130369   8.086   0.245   2.609  0.8662 -1.8526  2.3179
 9725SOL    HW230370   8.147   0.129   2.534 -1.3395 -1.7631  0.2708
 9726SOL     OW30371   5.043   6.919   3.154  0.3613 -0.4951 -0.8881
 9726SOL    HW130372   5.092   6.841   3.125 -0.4013 -1.7956  1.1150
 9726SOL    HW230373   4.952   6.897   3.139  0.0875 -0.3545  0.4624
 9727SOL     OW30374   5.658   4.673   1.107  0.5732 -0.1414  0.0077
 9727SOL    HW130375   5.563   4.668   1.118  0.4841 -1.7586 -1.1692
 9727SOL    HW230376   5.692   4.603   1.163  0.8923 -0.9990 -1.2287
 9728SOL     OW30377   5.785   2.632   5.524  0.2866 -0.0194  0.6472
 9728SOL    HW130378   5.695   2.657   5.544  0.1661  0.9351 -0.9485
 9728SOL    HW230379   5.784   2.609   5.431  1.9680  1.5752  0.1659
 9729SOL     OW30380   3.980   3.494   4.694 -0.5159  0.3746  0.5069
 9729SOL    HW130381   4.000   3.404   4.719 -0.3017  0.6451  1.3377
 9729SOL    HW230382   3.959   3.489   4.601  0.3361 -0.4037  0.3426
 9730SOL     OW30383   0.175   7.696   4.107  0.5605 -0.2472  0.5046
 9730SOL    HW130384   0.187   7.656   4.021 -2.4797  0.4947 -0.3906
 9730SOL    HW230385   0.251   7.752   4.119  0.9832 -0.2581 -1.7828
 9731SOL     OW30386   2.242   0.297   5.885  0.0595 -0.0144 -0.0643
 9731SOL    HW130387   2.156   0.317   5.847 -0.0010 -0.6007 -0.2458
 9731SOL    HW230388   2.278   0.383   5.909 -1.1076  0.1598  1.1773
 9732SOL     OW30389   2.027   7.438   1.401  0.2582 -0.2563 -0.0994
 9732SOL    HW130390   2.096   7.447   1.337 -0.7406  0.5372 -1.1129
 9732SOL    HW230391   2.025   7.523   1.446  1.2765 -0.9661  1.3593
 9733SOL     OW30392   6.300   4.497   3.386  0.1302 -0.2643 -0.0155
 9733SOL    HW130393   6.339   4.584   3.376 -0.0761 -0.3732 -2.1398
 9733SOL    HW230394   6.374   4.440   3.407  0.7131 -0.0108 -1.3028
 9734SOL     OW30395   0.162   1.785   5.150 -0.2613  0.0898 -0.0791
 9734SOL    HW130396   0.109   1.864   5.141  0.3608  0.6683  1.0539
 9734SOL    HW230397   0.139   1.731   5.074 -2.3316  0.3894  0.2754
 9735SOL     OW30398   7.534   4.137   5.762  0.3406  0.2090  0.3086
 9735SOL    HW130399   7.462   4.179   5.714  0.2096 -0.6597 -0.2755
 9735SOL    HW230400   7.613   4.165   5.716  0.3463  0.8461  0.7072
 9736SOL     OW30401   5.254   5.871   7.993 -0.2399 -0.0882 -0.0896
 9736SOL    HW130402   5.227   5.779   8.000 -0.7582  0.0966  0.4539
 9736SOL    HW230403   5.172   5.920   7.993  0.0469  0.5170  1.9756
 9737SOL     OW30404   4.179   3.332   1.750  0.0583 -0.5080 -0.5863
 9737SOL    HW130405   4.092   3.311   1.715 -0.2742 -1.8379  0.9350
 9737SOL    HW230406   4.222   3.248   1.759  0.7954 -0.0256  0.4932
 9738SOL     OW30407   4.361   1.661   5.983 -0.0824 -0.1164 -0.2844
 9738SOL    HW130408   4.437   1.712   5.954  0.2107  0.5288  1.4875
 9738SOL    HW230409   4.325   1.711   6.057 -1.7798 -0.8076 -0.5901
 9739SOL     OW30410   0.326   4.800   7.664  0.1072 -0.0522 -0.1063
 9739SOL    HW130411   0.338   4.895   7.667  1.6794 -0.2504  0.6199
 9739SOL    HW230412   0.378   4.771   7.589 -2.2431 -0.1528 -1.8314
 9740SOL     OW30413   6.244   5.338   4.353  0.3119  0.0498 -0.0161
 9740SOL    HW130414   6.299   5.275   4.306 -1.6194 -1.8880  0.1420
 9740SOL    HW230415   6.177   5.365   4.290 -1.8671 -2.0149  1.2194
 9741SOL     OW30416   1.282   7.238   5.110  0.0170  0.3492  0.0461
 9741SOL    HW130417   1.323   7.161   5.071  0.8926  0.4313  0.7788
 9741SOL    HW230418   1.215   7.264   5.046 -0.4612 -1.1454 -0.1116
 9742SOL     OW30419   3.746   2.156   0.543 -0.2825  0.4024 -0.2587
 9742SOL    HW130420   3.838   2.143   0.520 -0.9771 -0.4437 -2.8422
 9742SOL    HW230421   3.734   2.250   0.542  0.2522  0.4722 -1.3193
 9743SOL     OW30422   6.867   2.676   8.034 -0.2556  0.3510 -0.1509
 9743SOL    HW130423   6.855   2.624   8.114  0.3664  1.3444  0.6112
 9743SOL    HW230424   6.780   2.712   8.016 -0.9515 -1.7373 -1.2972
 9744SOL     OW30425   2.972   2.116   0.678 -0.0104 -0.0278  0.1077
 9744SOL    HW130426   2.939   2.204   0.659  0.5832  0.2368  0.2843
 9744SOL    HW230427   3.049   2.107   0.622  0.2773 -0.2015  0.5210
 9745SOL     OW30428   1.596   6.882   8.237  0.1272 -0.3891 -0.3744
 9745SOL    HW130429   1.615   6.975   8.248  1.3649 -0.7854  1.3733
 9745SOL    HW230430   1.645   6.857   8.159 -0.1553  0.3979 -0.8141
 9746SOL     OW30431   2.554   5.620   3.418 -0.2435  1.2190  0.3605
 9746SOL    HW130432   2.613   5.686   3.380  1.7309 -0.1852  0.7867
 9746SOL    HW230433   2.613   5.550   3.445 -2.2161 -0.4909  0.4096
 9747SOL     OW30434   4.272   4.340   5.607  0.3479 -0.2504 -0.3747
 9747SOL    HW130435   4.271   4.435   5.620 -0.8043 -0.3944  0.7245
 9747SOL    HW230436   4.281   4.330   5.512  1.1558  0.9359 -0.4583
 9748SOL     OW30437   7.617   8.290   1.064  0.0802 -0.2927 -0.8104
 9748SOL    HW130438   7.698   8.258   1.024 -0.0153  1.4968 -2.5485
 9748SOL    HW230439   7.562   8.212   1.072  0.7351 -0.9904 -2.6525
 9749SOL     OW30440   0.209   2.558   3.015 -0.3727 -0.3441 -0.7112
 9749SOL    HW130441   0.152   2.628   3.048  0.3376 -0.3592  0.6325
 9749SOL    HW230442   0.162   2.522   2.940 -2.1335 -0.3679  0.3402
 9750SOL     OW30443   6.714   4.580   6.631 -0.2382  0.1224  0.7613
 9750SOL    HW130444   6.676   4.506   6.677 -1.0719 -0.2618 -0.5040
 9750SOL    HW230445   6.787   4.608   6.687 -0.2811 -1.2569  1.5519
 9751SOL     OW30446   0.826   4.299   3.777 -0.1633  0.0477  0.2914
 9751SOL    HW130447   0.890   4.303   3.706 -0.0114 -1.3914  0.3265
 9751SOL    HW230448   0.878   4.315   3.856 -0.2844  1.3566  0.1267
 9752SOL     OW30449   0.251   5.287   5.966 -0.4508  0.1637  0.0117
 9752SOL    HW130450   0.174   5.344   5.972 -1.6411 -1.4070  0.0703
 9752SOL    HW230451   0.322   5.346   5.939 -1.9097  1.4466 -1.1907
 9753SOL     OW30452   4.956   0.306   4.148  0.4879 -0.6595 -0.0750
 9753SOL    HW130453   5.021   0.289   4.080  0.6443 -0.6580  0.0731
 9753SOL    HW230454   4.872   0.303   4.102  0.4925 -1.9271 -0.0491
 9754SOL     OW30455   0.449   0.130   8.269  0.3908 -0.5674 -0.2387
 9754SOL    HW130456   0.488   0.048   8.299 -0.6788  0.2030  3.9690
 9754SOL    HW230457   0.502   0.198   8.311  0.0251  0.8339 -1.9574
 9755SOL     OW30458   8.579   5.426   5.070  0.4842  0.0121 -0.5064
 9755SOL    HW130459   8.637   5.433   4.994  1.4154  0.5622  0.2275
 9755SOL    HW230460   8.625   5.366   5.129 -0.0566 -0.1271 -0.2177
 9756SOL     OW30461   0.238   0.776   3.573  0.4073 -0.1150 -0.2287
 9756SOL    HW130462   0.214   0.723   3.649 -0.2648  1.0829  0.4308
 9756SOL    HW230463   0.163   0.769   3.513  1.0062 -1.1923 -0.8804
 9757SOL     OW30464   5.858   1.274   4.989 -0.8938 -0.2849 -0.0795
 9757SOL    HW130465   5.884   1.239   4.904  0.3008  1.4218 -0.4767
 9757SOL    HW230466   5.896   1.362   4.991 -0.3735 -0.4964  2.4758
 9758SOL     OW30467   1.977   6.407   8.130 -0.4079  0.0726  0.2837
 9758SOL    HW130468   2.014   6.474   8.072  0.9610 -1.1610 -0.3312
 9758SOL    HW230469   1.908   6.366   8.078 -0.3946  0.1583  0.1970
 9759SOL     OW30470   4.320   6.364   0.267 -0.1079 -0.2782 -0.0995
 9759SOL    HW130471   4.402   6.381   0.220  0.2025  0.3149  0.6246
 9759SOL    HW230472   4.311   6.269   0.267 -0.0503 -0.2959 -1.2314
 9760SOL     OW30473   6.280   0.995   1.159  0.2762  0.1550 -0.1550
 9760SOL    HW130474   6.225   1.069   1.133  0.6947  0.0455 -1.4263
 9760SOL    HW230475   6.266   0.987   1.254 -0.6071  1.1666 -0.1767
 9761SOL     OW30476   1.612   7.269   5.506 -0.1266 -0.4086 -1.0277
 9761SOL    HW130477   1.636   7.331   5.437 -0.4481 -0.2405 -0.9921
 9761SOL    HW230478   1.523   7.243   5.484  0.0653 -0.9880 -1.1329
 9762SOL     OW30479   4.458   2.012   5.725 -0.1220 -0.0645 -0.1274
 9762SOL    HW130480   4.450   2.099   5.764 -0.5027 -0.3404  0.4285
 9762SOL    HW230481   4.403   2.016   5.647 -0.5585  0.0391  0.1778
 9763SOL     OW30482   1.436   5.963   5.113 -0.0588  0.1569 -0.2572
 9763SOL    HW130483   1.451   5.989   5.022 -1.1957 -0.1408 -0.5412
 9763SOL    HW230484   1.521   5.977   5.155  0.4145  0.5671 -1.2910
 9764SOL     OW30485   0.387   0.148   6.765  0.2481  0.2323  0.3945
 9764SOL    HW130486   0.425   0.229   6.730  0.3618 -0.2697 -0.6835
 9764SOL    HW230487   0.458   0.085   6.763 -0.3147 -0.4120 -0.5956
 9765SOL     OW30488   1.025   4.186   5.399  0.2336 -0.2765  0.1124
 9765SOL    HW130489   1.000   4.239   5.324  2.7364 -0.2223 -0.7743
 9765SOL    HW230490   0.943   4.148   5.431 -1.5746  3.4068  0.3038
 9766SOL     OW30491   5.207   8.486   3.111  0.3128  0.3090  0.2290
 9766SOL    HW130492   5.297   8.483   3.079 -0.5616  0.5345 -2.4704
 9766SOL    HW230493   5.204   8.565   3.165  1.4025  1.1364 -0.8393
 9767SOL     OW30494   2.669   1.286   0.195  0.3129 -0.2031  0.3336
 9767SOL    HW130495   2.689   1.312   0.285 -0.6199 -0.3412  0.5967
 9767SOL    HW230496   2.586   1.238   0.202 -0.0504  0.2565 -0.6742
 9768SOL     OW30497   4.185   1.753   0.245 -0.5105 -0.0421  0.2769
 9768SOL    HW130498   4.245   1.698   0.296 -0.7239 -0.8904 -0.3643
 9768SOL    HW230499   4.211   1.740   0.154 -1.8822 -0.7301 -0.0519
 9769SOL     OW30500   7.719   1.240   5.451 -0.1208  0.6348 -0.3633
 9769SOL    HW130501   7.729   1.322   5.401 -2.9303  0.4733 -1.4076
 9769SOL    HW230502   7.709   1.173   5.384 -1.2535 -0.0050  0.4071
 9770SOL     OW30503   8.416   4.073   7.603  0.0946 -0.1219  0.0174
 9770SOL    HW130504   8.473   4.000   7.577  1.2220  0.1237  1.6469
 9770SOL    HW230505   8.329   4.034   7.609  0.6837 -1.3826  0.9158
 9771SOL     OW30506   0.307   5.224   2.987 -0.1314 -0.5597  0.2351
 9771SOL    HW130507   0.244   5.290   3.015 -1.5662 -1.1530 -1.4053
 9771SOL    HW230508   0.381   5.274   2.953 -0.2374  0.1686  1.0438
 9772SOL     OW30509   7.666   0.852   5.942  0.0844  0.3923  0.0044
 9772SOL    HW130510   7.760   0.862   5.928  0.2238 -0.8922 -0.1439
 9772SOL    HW230511   7.638   0.935   5.979  1.5916  0.2656  1.5898
 9773SOL     OW30512   1.095   2.413   2.595 -0.5412 -0.1344 -0.3347
 9773SOL    HW130513   1.098   2.471   2.519  0.9901  3.5493  2.2370
 9773SOL    HW230514   1.003   2.411   2.620 -0.6922  0.8668 -0.7465
 9774SOL     OW30515   1.016   1.071   7.191 -0.3313  0.0598 -0.2138
 9774SOL    HW130516   0.933   1.112   7.168  0.4572  2.1720  0.5192
 9774SOL    HW230517   1.005   1.044   7.283 -0.2783  0.1045 -0.1945
 9775SOL     OW30518   6.635   1.950   5.552  0.1345  0.8568 -0.3881
 9775SOL    HW130519   6.632   2.041   5.579  0.3007  0.5512  0.7065
 9775SOL    HW230520   6.631   1.953   5.457 -3.2215  1.8754 -0.3321
 9776SOL     OW30521   5.978   7.548   6.074  0.8506  0.1794 -0.8619
 9776SOL    HW130522   6.009   7.631   6.111  1.4828  0.5601 -2.2054
 9776SOL    HW230523   6.016   7.545   5.987 -1.3300 -0.2713 -1.8591
 9777SOL     OW30524   1.706   6.594   8.189 -0.6364 -0.5022 -0.1853
 9777SOL    HW130525   1.697   6.575   8.096 -2.3055 -0.3238 -0.0850
 9777SOL    HW230526   1.618   6.583   8.225 -0.7629  2.5640  0.7530
 9778SOL     OW30527   2.246   4.942   1.335  0.0224 -0.1460  0.0996
 9778SOL    HW130528   2.286   4.981   1.257  0.2733 -0.8322 -0.1299
 9778SOL    HW230529   2.219   4.854   1.306 -0.1911 -0.2806  0.6932
 9779SOL     OW30530   2.679   2.628   0.788 -0.2351  0.3657  0.3357
 9779SOL    HW130531   2.685   2.723   0.790 -1.6238  0.4693  0.3297
 9779SOL    HW230532   2.614   2.609   0.720  0.1173 -0.5917  0.2437
 9780SOL     OW30533   6.815   0.419   0.160 -0.3686 -0.3991  0.2779
 9780SOL    HW130534   6.744   0.483   0.163  0.6550  0.7798  0.0944
 9780SOL    HW230535   6.771   0.335   0.156 -1.7996  0.1053  3.1067
 9781SOL     OW30536   7.683   4.248   8.384  0.0060 -0.4510 -0.0367
 9781SOL    HW130537   7.702   4.281   8.472 -2.5301  2.9311 -0.5545
 9781SOL    HW230538   7.599   4.203   8.392  0.7269 -1.9458 -0.4485
 9782SOL     OW30539   4.705   6.573   8.237  0.3986  0.6461  0.0322
 9782SOL    HW130540   4.700   6.668   8.253  1.2496  0.3638  2.1527
 9782SOL    HW230541   4.784   6.545   8.282  0.2020 -1.0866 -0.6468
 9783SOL     OW30542   0.466   0.826   5.815 -0.0072  0.5495 -0.2107
 9783SOL    HW130543   0.459   0.770   5.893  0.3134 -0.2393 -0.7308
 9783SOL    HW230544   0.461   0.915   5.849  0.9895  0.2395  0.8071
 9784SOL     OW30545   0.789   1.480   1.070  0.1668  0.0811 -0.0091
 9784SOL    HW130546   0.859   1.483   1.005 -0.8322 -1.4888 -1.2347
 9784SOL    HW230547   0.833   1.462   1.153  1.2317 -0.8000 -0.7360
 9785SOL     OW30548   0.787   4.578   0.473  0.4066  0.2983 -0.0971
 9785SOL    HW130549   0.714   4.561   0.413  0.0824  2.1194 -0.2600
 9785SOL    HW230550   0.746   4.607   0.554  0.8540 -1.9946  1.0379
 9786SOL     OW30551   7.843   7.223   7.038 -0.1243 -0.2546 -0.1229
 9786SOL    HW130552   7.851   7.135   7.000 -0.4081  0.2795 -1.5085
 9786SOL    HW230553   7.802   7.209   7.123 -2.8221 -1.2685 -1.4806
 9787SOL     OW30554   1.242   3.132   2.812  0.0303 -0.0589 -0.0211
 9787SOL    HW130555   1.285   3.164   2.732  0.4472  1.0087  0.6151
 9787SOL    HW230556   1.165   3.187   2.821 -2.1843 -2.6248 -1.7312
 9788SOL     OW30557   0.096   3.002   5.241  0.0556 -0.2602  0.2804
 9788SOL    HW130558   0.163   3.069   5.250 -0.9143  1.0886 -1.6049
 9788SOL    HW230559   0.041   3.011   5.319  0.0536  1.0550  0.1426
 9789SOL     OW30560   0.533   2.258   4.621  0.0614 -0.7258  0.2669
 9789SOL    HW130561   0.498   2.341   4.652  0.6551 -0.2243 -0.3796
 9789SOL    HW230562   0.456   2.204   4.605 -0.3125 -0.4677  1.1363
 9790SOL     OW30563   4.375   7.333   4.887 -0.5260  0.3602  0.5671
 9790SOL    HW130564   4.290   7.295   4.863 -1.2661  1.1473  1.7856
 9790SOL    HW230565   4.398   7.290   4.969  0.3201  0.0763  0.1871
 9791SOL     OW30566   4.097   3.710   1.315 -0.5542 -0.2897  0.5669
 9791SOL    HW130567   4.156   3.640   1.344  1.3046  0.0907 -1.9230
 9791SOL    HW230568   4.155   3.780   1.285 -2.3502  1.5225  1.0876
 9792SOL     OW30569   7.886   6.718   8.344 -0.1346 -0.4600 -0.3945
 9792SOL    HW130570   7.915   6.777   8.413 -0.1291  1.3369 -1.8401
 9792SOL    HW230571   7.888   6.631   8.384  2.1543  0.2011  1.1394
 9793SOL     OW30572   4.223   3.096   1.000  0.0945 -0.1208 -0.4649
 9793SOL    HW130573   4.169   3.147   1.061  1.5879  0.5415  0.3456
 9793SOL    HW230574   4.160   3.061   0.937 -1.0696  2.4231 -0.8595
 9794SOL     OW30575   8.350   0.310   2.647 -0.4917 -0.1032 -0.0930
 9794SOL    HW130576   8.392   0.228   2.675 -0.8773 -0.0567  0.6365
 9794SOL    HW230577   8.271   0.316   2.701 -1.2931 -0.0400 -1.2370
 9795SOL     OW30578   0.623   1.221   2.134  0.0140 -0.1326  0.7695
 9795SOL    HW130579   0.677   1.193   2.208 -0.6556 -1.6358  0.7047
 9795SOL    HW230580   0.564   1.149   2.118 -0.6595  0.6640 -0.4881
 9796SOL     OW30581   3.641   7.712   1.192 -0.0040 -0.2184  0.2813
 9796SOL    HW130582   3.661   7.652   1.264  0.9140  0.4209  0.5673
 9796SOL    HW230583   3.656   7.660   1.113 -0.0434 -0.6187  0.5339
 9797SOL     OW30584   3.963   1.053   6.177 -0.0057 -0.4249 -0.3941
 9797SOL    HW130585   4.011   1.046   6.259 -1.2720 -4.1404  0.2293
 9797SOL    HW230586   3.873   1.030   6.199 -0.9226  0.8303 -2.4702
 9798SOL     OW30587   4.914   7.100   7.473 -0.6402 -0.0224  0.1413
 9798SOL    HW130588   4.923   7.112   7.568  0.7964  1.7479 -0.1688
 9798SOL    HW230589   4.992   7.142   7.436 -1.3772 -0.3178 -1.8598
 9799SOL     OW30590   1.799   8.528   0.451  0.0168  0.1960 -0.2392
 9799SOL    HW130591   1.766   8.553   0.537 -1.1408  1.6023 -1.0615
 9799SOL    HW230592   1.890   8.502   0.467 -0.3225 -0.0641  1.4692
 9800SOL     OW30593   6.111   2.501   6.288 -0.1311  0.2898  0.2129
 9800SOL    HW130594   6.076   2.561   6.354  1.9103  0.2753  1.3957
 9800SOL    HW230595   6.200   2.482   6.319 -0.3632 -2.5582 -0.6615
 9801SOL     OW30596   2.501   0.197   3.477 -0.1759  0.2461  0.2317
 9801SOL    HW130597   2.582   0.228   3.435  1.2495  0.7713  3.1138
 9801SOL    HW230598   2.517   0.103   3.492 -0.5021  0.1452 -0.0641
 9802SOL     OW30599   7.304   6.164   0.605  0.2440 -0.2454  0.2579
 9802SOL    HW130600   7.366   6.216   0.656  0.5985 -0.8080  0.4086
 9802SOL    HW230601   7.337   6.074   0.611 -1.0353 -0.6991  1.0368
 9803SOL     OW30602   3.016   0.863   7.951  0.1999 -0.9095 -0.0871
 9803SOL    HW130603   3.004   0.955   7.928 -1.2155 -1.6120 -2.5827
 9803SOL    HW230604   2.964   0.850   8.030 -1.4656 -0.0350 -1.0055
 9804SOL     OW30605   7.603   4.398   1.833 -0.8093  0.4238 -0.2964
 9804SOL    HW130606   7.535   4.353   1.884 -1.0032  0.2736 -0.6844
 9804SOL    HW230607   7.565   4.483   1.812 -0.8351  0.3833 -0.4164
 9805SOL     OW30608   5.483   5.025   0.877  0.8137  0.2549  0.0628
 9805SOL    HW130609   5.438   5.088   0.935  1.0420  0.3411  0.1474
 9805SOL    HW230610   5.527   4.965   0.937  2.1174  1.1004  0.0009
 9806SOL     OW30611   0.651   1.629   8.092  0.2475 -0.6771  0.5067
 9806SOL    HW130612   0.667   1.659   8.182  1.9006 -1.2554  0.4406
 9806SOL    HW230613   0.583   1.687   8.059  1.4206  1.2434  1.2818
 9807SOL     OW30614   7.963   5.509   1.541 -0.1412  0.6668  0.0852
 9807SOL    HW130615   7.879   5.555   1.546 -2.0581 -2.7026  1.5450
 9807SOL    HW230616   7.945   5.431   1.488  2.0098 -0.2876  0.6639
 9808SOL     OW30617   2.103   1.838   7.023  1.0502  0.5253 -0.2347
 9808SOL    HW130618   2.182   1.864   6.976  1.3118 -1.6096 -1.0807
 9808SOL    HW230619   2.123   1.855   7.115  2.2698  0.5531 -0.4878
 9809SOL     OW30620   8.553   3.687   8.526  0.1165  0.6622  0.0050
 9809SOL    HW130621   8.489   3.633   8.574 -0.6667  1.7932  0.2801
 9809SOL    HW230622   8.562   3.766   8.579  0.4739  1.2401 -0.8926
 9810SOL     OW30623   6.421   3.265   2.333 -0.4455  0.2768  0.0476
 9810SOL    HW130624   6.426   3.188   2.390  1.4927 -0.6774 -1.3125
 9810SOL    HW230625   6.490   3.323   2.366  1.2051 -0.6019 -1.6742
 9811SOL     OW30626   0.499   7.629   8.407  0.4641 -0.4386  0.2871
 9811SOL    HW130627   0.501   7.539   8.374 -0.1815  0.3867 -2.2682
 9811SOL    HW230628   0.585   7.664   8.384  0.0909  0.0903 -0.3217
 9812SOL     OW30629   4.413   5.416   7.090 -0.4670  0.2616 -0.1527
 9812SOL    HW130630   4.406   5.398   7.184 -0.9320 -1.4891 -0.4885
 9812SOL    HW230631   4.494   5.466   7.081  0.3099 -0.7332  1.0228
 9813SOL     OW30632   3.388   8.585   8.251  0.7257  0.3369  0.3373
 9813SOL    HW130633   3.402   8.617   8.340  2.1087 -1.1153  0.6923
 9813SOL    HW230634   3.342   8.656   8.206  0.7233  1.4119  1.9729
 9814SOL     OW30635   1.873   3.967   8.115 -0.2692 -0.0078 -0.8033
 9814SOL    HW130636   1.865   3.896   8.178 -0.6079  0.7953  0.0751
 9814SOL    HW230637   1.797   4.023   8.131  1.9001  2.6620  1.2475
 9815SOL     OW30638   3.302   7.134   0.740 -0.1398 -0.8400  0.1828
 9815SOL    HW130639   3.310   7.228   0.755 -0.5319 -0.7453 -0.2029
 9815SOL    HW230640   3.390   7.100   0.758  0.3815 -0.2039 -1.0907
 9816SOL     OW30641   1.897   4.250   0.246 -0.3316 -0.6390 -0.1413
 9816SOL    HW130642   1.856   4.185   0.189 -0.0287 -0.5427 -0.4678
 9816SOL    HW230643   1.926   4.319   0.187  0.8913 -1.0088 -0.0045
 9817SOL     OW30644   1.007   0.551   5.582  0.2214 -0.0284  0.5620
 9817SOL    HW130645   1.048   0.633   5.552 -0.9966  0.2175 -0.5375
 9817SOL    HW230646   0.925   0.580   5.623  0.9453 -0.5292  2.4554
 9818SOL     OW30647   4.835   2.940   7.581  0.4316  0.5272 -0.1902
 9818SOL    HW130648   4.829   3.031   7.611 -0.8778  0.5436 -0.4225
 9818SOL    HW230649   4.897   2.899   7.640 -0.6313  1.0255  1.3399
 9819SOL     OW30650   2.223   3.385   1.368  0.0107 -0.1944  0.1013
 9819SOL    HW130651   2.150   3.338   1.409  1.1043  0.0506  2.4536
 9819SOL    HW230652   2.302   3.345   1.406  1.0442  1.3678 -0.2928
 9820SOL     OW30653   1.865   3.885   0.261 -0.3502 -0.2523  0.2704
 9820SOL    HW130654   1.865   3.866   0.167  2.8125  0.0232  0.1192
 9820SOL    HW230655   1.783   3.934   0.275 -1.1599 -0.7583 -2.2103
 9821SOL     OW30656   3.488   3.486   2.306 -0.5356 -0.6254  0.2880
 9821SOL    HW130657   3.566   3.497   2.360 -0.8734 -0.1113  0.6778
 9821SOL    HW230658   3.418   3.464   2.368 -1.0845  0.6777  0.1595
 9822SOL     OW30659   4.368   2.139   3.018  0.0430  0.5930  0.5193
 9822SOL    HW130660   4.426   2.145   2.942 -0.3830 -0.5128  0.0936
 9822SOL    HW230661   4.382   2.051   3.052 -1.6484  0.1683  0.1912
 9823SOL     OW30662   5.363   4.390   4.167  0.4764 -0.1982 -0.1192
 9823SOL    HW130663   5.300   4.461   4.167  0.8784  0.1682  0.7479
 9823SOL    HW230664   5.311   4.312   4.148 -0.2554  0.0786  0.6984
 9824SOL     OW30665   2.964   5.721   8.427 -0.6535 -0.3292 -0.7717
 9824SOL    HW130666   2.947   5.662   8.500  0.2587  0.3625  0.0209
 9824SOL    HW230667   2.961   5.665   8.350  1.1451 -1.6301  0.0313
 9825SOL     OW30668   1.014   8.216   1.879  0.1876 -0.4368  0.2618
 9825SOL    HW130669   1.040   8.266   1.956 -1.1307 -0.0286  0.4636
 9825SOL    HW230670   1.022   8.278   1.806 -1.1865  0.0091  0.4735
 9826SOL     OW30671   0.028   3.105   0.447  0.1227 -0.8233 -0.5086
 9826SOL    HW130672  -0.035   3.127   0.516 -1.3202 -2.4133 -1.2303
 9826SOL    HW230673   0.074   3.028   0.480 -0.6777 -1.6824 -1.3445
 9827SOL     OW30674   0.383   8.344   2.374 -0.5223 -0.0005  0.6058
 9827SOL    HW130675   0.464   8.353   2.325 -1.5619  0.3633 -1.1156
 9827SOL    HW230676   0.330   8.419   2.346 -1.5603 -0.3901  1.4877
 9828SOL     OW30677   7.971   3.867   0.505  0.5779 -0.2382 -0.0251
 9828SOL    HW130678   7.966   3.935   0.438  0.6767  1.6153  1.7440
 9828SOL    HW230679   7.897   3.809   0.486  1.6598 -0.8709 -2.7768
 9829SOL     OW30680   3.756   2.878   1.574 -0.3291 -0.3549  0.5286
 9829SOL    HW130681   3.848   2.851   1.576 -0.0770  0.2914 -0.7632
 9829SOL    HW230682   3.747   2.925   1.491 -2.1450 -1.5058  0.0146
 9830SOL     OW30683   7.122   4.721   8.094 -0.1476 -0.1826 -0.5296
 9830SOL    HW130684   7.094   4.812   8.087 -1.4558 -0.4142  1.1456
 9830SOL    HW230685   7.162   4.701   8.009  3.1222  2.8898  0.0448
 9831SOL     OW30686   6.499   6.743   3.635 -0.1322 -0.7287 -0.0277
 9831SOL    HW130687   6.485   6.829   3.595  1.2215 -0.9968 -1.1326
 9831SOL    HW230688   6.589   6.720   3.612 -0.4060 -2.3573  0.4304
 9832SOL     OW30689   6.114   3.769   5.486  0.2937  0.7913  0.1260
 9832SOL    HW130690   6.040   3.825   5.511  0.1263  1.1027 -1.0424
 9832SOL    HW230691   6.073   3.690   5.450  0.5348  0.5380  0.4022
 9833SOL     OW30692   5.185   7.086   5.661  0.4948 -0.3019  0.3945
 9833SOL    HW130693   5.263   7.091   5.716  0.1706  0.1505  0.8272
 9833SOL    HW230694   5.195   7.160   5.601  1.1708 -1.1832 -0.6011
 9834SOL     OW30695   4.248   4.412   7.216  0.2754 -0.2183  0.0750
 9834SOL    HW130696   4.237   4.475   7.145 -2.4317  0.3911  0.8934
 9834SOL    HW230697   4.336   4.429   7.250 -0.1519  2.8885 -0.0319
 9835SOL     OW30698   6.151   3.150   2.408  0.2111 -0.2142  0.5440
 9835SOL    HW130699   6.218   3.115   2.466 -0.1299  0.2736  1.2499
 9835SOL    HW230700   6.170   3.111   2.322  0.2512 -1.5539  1.1407
 9836SOL     OW30701   5.782   4.404   5.995 -0.1270 -0.5208 -0.7272
 9836SOL    HW130702   5.838   4.350   5.940  0.6051 -1.2588  0.6763
 9836SOL    HW230703   5.842   4.462   6.041 -0.7316  0.1501 -0.7672
 9837SOL     OW30704   2.617   1.635   6.278 -0.7006  0.2042  0.3820
 9837SOL    HW130705   2.696   1.651   6.331 -1.8254 -0.8824  2.5283
 9837SOL    HW230706   2.641   1.663   6.190  1.7290  0.8839  1.1810
 9838SOL     OW30707   6.486   1.828   6.545  0.3137  0.0313  0.2411
 9838SOL    HW130708   6.413   1.794   6.493  0.0184 -0.7483  1.1366
 9838SOL    HW230709   6.518   1.902   6.495 -1.2455  0.5449 -0.0581
 9839SOL     OW30710   1.056   5.243   4.404 -0.5399  0.2399  0.7017
 9839SOL    HW130711   1.040   5.195   4.485  1.8761  0.2595  1.2754
 9839SOL    HW230712   0.970   5.254   4.365 -1.5043 -1.9202  2.0359
 9840SOL     OW30713   8.022   6.835   8.532  0.1488 -0.4770 -0.0778
 9840SOL    HW130714   7.997   6.870   8.618 -1.0100 -1.5675  0.0703
 9840SOL    HW230715   8.116   6.849   8.527  0.1856 -0.0661  1.2277
 9841SOL     OW30716   5.774   6.904   4.152  1.0333 -0.7141 -0.1352
 9841SOL    HW130717   5.704   6.968   4.164  0.3289 -1.2786 -1.0678
 9841SOL    HW230718   5.843   6.932   4.212  0.1599  0.0692  0.5301
 9842SOL     OW30719   1.476   2.590   5.106  0.2615  0.3754 -0.2378
 9842SOL    HW130720   1.488   2.612   5.199  0.2109 -0.1211 -0.1066
 9842SOL    HW230721   1.397   2.637   5.080 -0.5657 -0.6267  0.3758
 9843SOL     OW30722   2.574   0.692   1.238 -0.1882 -0.0105  0.4319
 9843SOL    HW130723   2.609   0.754   1.301 -0.2097 -0.2551  0.6880
 9843SOL    HW230724   2.587   0.734   1.153 -0.9485  0.6966  0.6548
 9844SOL     OW30725   5.201   5.437   2.381  0.1590  0.7478 -0.2202
 9844SOL    HW130726   5.129   5.476   2.429  0.6103 -0.3836  1.4546
 9844SOL    HW230727   5.269   5.505   2.378 -0.4086  1.3062 -0.5225
 9845SOL     OW30728   5.488   1.686   4.278 -0.1314  0.4780 -0.5329
 9845SOL    HW130729   5.420   1.658   4.217  0.5230  0.8706 -1.4637
 9845SOL    HW230730   5.561   1.625   4.263 -0.6741 -0.7298  1.3257
 9846SOL     OW30731   3.884   8.297   6.084 -0.4194  0.3073 -0.4985
 9846SOL    HW130732   3.973   8.273   6.109 -0.1158  0.4072 -1.4313
 9846SOL    HW230733   3.828   8.245   6.142  0.2396  0.2572  0.1116
 9847SOL     OW30734   3.621   0.574   6.690 -0.3477  0.2646 -0.2244
 9847SOL    HW130735   3.624   0.633   6.766  2.1407 -0.7032  0.5288
 9847SOL    HW230736   3.660   0.625   6.619  0.9517 -0.1235  0.1897
 9848SOL     OW30737   4.651   7.251   0.629 -0.0802  0.1239  0.0289
 9848SOL    HW130738   4.617   7.206   0.707  1.3557 -0.1470  0.5154
 9848SOL    HW230739   4.687   7.333   0.662  3.2489 -1.2559  0.1981
 9849SOL     OW30740   2.193   0.673   0.470 -0.4967  0.0171  0.1372
 9849SOL    HW130741   2.160   0.683   0.381 -0.7523 -1.0865  0.0970
 9849SOL    HW230742   2.265   0.611   0.462  1.3442  2.0084  0.2938
 9850SOL     OW30743   8.001   0.062   4.713 -0.1460 -0.4941  0.0772
 9850SOL    HW130744   8.047   0.053   4.797  0.5324 -1.7731 -0.4017
 9850SOL    HW230745   7.926   0.118   4.733  0.2595 -0.3865  1.4321
 9851SOL     OW30746   3.744   7.753   0.693 -0.0733  0.3146 -0.3695
 9851SOL    HW130747   3.691   7.742   0.614  0.4359 -1.3477 -0.5327
 9851SOL    HW230748   3.831   7.723   0.667  1.1012  3.2995 -0.2061
 9852SOL     OW30749   4.538   7.741   7.870 -0.4752 -0.1530  0.1135
 9852SOL    HW130750   4.519   7.708   7.958  3.2660  0.3056  1.2738
 9852SOL    HW230751   4.527   7.664   7.813 -1.5797 -0.8114  1.1566
 9853SOL     OW30752   2.300   5.155   0.450 -0.3567  0.5142  0.1058
 9853SOL    HW130753   2.346   5.238   0.463 -0.3749  0.4139  0.8577
 9853SOL    HW230754   2.241   5.171   0.376  1.2868  0.4686 -1.2610
 9854SOL     OW30755   6.836   3.318   4.532  0.7596  0.1544 -0.1372
 9854SOL    HW130756   6.798   3.237   4.567  0.9394  0.6972  1.3392
 9854SOL    HW230757   6.929   3.311   4.552  0.5007  1.5641  1.7128
 9855SOL     OW30758   0.784   7.400   3.318  0.0241 -0.2603 -0.8589
 9855SOL    HW130759   0.724   7.366   3.251 -0.5062  1.1778 -1.1616
 9855SOL    HW230760   0.727   7.422   3.391  0.2265  0.6595 -0.9623
 9856SOL     OW30761   4.718   7.849   0.282  0.1500  0.5620 -0.6493
 9856SOL    HW130762   4.782   7.917   0.262  0.3551  0.5927  0.0875
 9856SOL    HW230763   4.634   7.895   0.285  0.2601  0.7479 -0.3659
 9857SOL     OW30764   4.450   7.661   6.383  0.2669  0.2365 -0.5379
 9857SOL    HW130765   4.395   7.737   6.366  0.6474  0.5317 -0.4841
 9857SOL    HW230766   4.450   7.653   6.479  0.9395  0.7180 -0.4884
 9858SOL     OW30767   7.507   5.261   4.777  0.3679  0.8386 -0.1716
 9858SOL    HW130768   7.528   5.244   4.869 -0.7775  1.9526  0.3292
 9858SOL    HW230769   7.591   5.260   4.732  1.1103  1.7306  1.1419
 9859SOL     OW30770   7.490   6.038   1.827  0.6074 -0.2338 -0.2472
 9859SOL    HW130771   7.573   6.045   1.874 -0.1374 -0.1205  1.0801
 9859SOL    HW230772   7.502   6.094   1.750  1.2113  1.0666  0.7451
 9860SOL     OW30773   4.986   2.834   4.632  0.4978  0.7379 -0.1430
 9860SOL    HW130774   5.043   2.777   4.684  0.1243  0.7298  0.2685
 9860SOL    HW230775   5.039   2.912   4.615  0.3442  1.1214  1.0120
 9861SOL     OW30776   0.698   5.824   0.693  0.4066 -0.0799  0.5110
 9861SOL    HW130777   0.623   5.879   0.710  0.2245 -0.2689  0.3354
 9861SOL    HW230778   0.678   5.782   0.609  0.6493 -0.2265  0.5251
 9862SOL     OW30779   7.412   0.522   3.241  0.3174  0.4345 -0.5125
 9862SOL    HW130780   7.429   0.441   3.289  1.6704  0.6153 -0.6295
 9862SOL    HW230781   7.406   0.589   3.309 -0.4865  0.2965 -0.4370
 9863SOL     OW30782   0.890   0.092   4.663  0.1830 -0.6404  0.6380
 9863SOL    HW130783   0.888   0.154   4.735 -0.5598 -1.0289  0.9643
 9863SOL    HW230784   0.902   0.146   4.585 -1.1925  0.0061  0.8394
 9864SOL     OW30785   1.265   2.351   3.538 -0.4874  0.2859 -0.6343
 9864SOL    HW130786   1.176   2.363   3.504 -0.6482 -0.1628 -0.3828
 9864SOL    HW230787   1.259   2.273   3.594  0.0751  0.2230 -0.6556
 9865SOL     OW30788   1.682   2.092   5.313 -0.4683 -0.0628  0.0331
 9865SOL    HW130789   1.592   2.123   5.319 -0.6829 -0.8834  3.2050
 9865SOL    HW230790   1.677   2.011   5.264 -1.3879  0.1561 -0.2494
 9866SOL     OW30791   2.230   6.415   0.377  0.0616  0.1817 -0.1017
 9866SOL    HW130792   2.311   6.463   0.391  1.1484 -2.0782  2.3759
 9866SOL    HW230793   2.230   6.348   0.446 -2.7481 -1.4502 -1.5059
 9867SOL     OW30794   3.785   4.776   1.975 -0.4961 -0.6282 -0.4629
 9867SOL    HW130795   3.756   4.769   2.066 -1.1210 -1.5353 -0.7107
 9867SOL    HW230796   3.740   4.854   1.942  1.8464  1.3524  0.7146
 9868SOL     OW30797   6.955   1.039   6.995  0.0269 -0.1448 -0.1344
 9868SOL    HW130798   7.035   1.037   7.049 -0.4571 -0.1793  0.5934
 9868SOL    HW230799   6.888   1.073   7.054 -0.8966 -1.7534 -0.2071
 9869SOL     OW30800   1.019   5.704   3.852  0.6310  0.0679 -0.6645
 9869SOL    HW130801   1.098   5.709   3.906 -0.5680 -0.7561  1.2790
 9869SOL    HW230802   0.986   5.794   3.850  1.2102  0.2833 -0.8670
 9870SOL     OW30803   2.452   7.612   7.442  0.2047  0.3288 -0.3779
 9870SOL    HW130804   2.376   7.584   7.391  0.6586 -2.9999  0.4834
 9870SOL    HW230805   2.525   7.611   7.380 -0.1112  1.5728 -0.7790
 9871SOL     OW30806   6.233   5.423   2.831  0.1787  0.2824  0.2497
 9871SOL    HW130807   6.159   5.422   2.891  0.9362  0.7777  1.2318
 9871SOL    HW230808   6.210   5.488   2.764 -0.4778  0.0611  0.2592
 9872SOL     OW30809   0.327   3.693   1.422  0.3714  0.3633  0.4889
 9872SOL    HW130810   0.420   3.695   1.397  0.0552  1.3416 -0.7562
 9872SOL    HW230811   0.294   3.780   1.396 -1.2836 -0.5643 -0.7236
 9873SOL     OW30812   8.382   2.636   6.882 -0.8843  0.3940  0.6453
 9873SOL    HW130813   8.455   2.575   6.875 -0.0834  1.4547 -0.8116
 9873SOL    HW230814   8.420   2.714   6.923 -1.3863  0.6660  0.5966
 9874SOL     OW30815   0.756   3.640   6.631  0.2303  0.3122  0.4807
 9874SOL    HW130816   0.714   3.633   6.546  0.5273  2.1377  0.1451
 9874SOL    HW230817   0.847   3.662   6.611  0.1259  1.5459  1.2581
 9875SOL     OW30818   6.997   8.327   3.701 -0.1703 -0.1152  0.3277
 9875SOL    HW130819   6.958   8.413   3.714  0.8809  0.1295  2.4659
 9875SOL    HW230820   6.937   8.281   3.642 -1.6979  1.4571  0.5791
 9876SOL     OW30821   1.305   8.014   1.252  0.2122 -0.1389 -0.1398
 9876SOL    HW130822   1.361   8.056   1.317  0.0336  1.0271 -0.7272
 9876SOL    HW230823   1.257   8.086   1.210 -1.2005 -1.0399 -0.1502
 9877SOL     OW30824   6.868   7.747   2.908  0.2510 -0.5191  0.0834
 9877SOL    HW130825   6.936   7.814   2.898  0.2451 -0.3624  1.0424
 9877SOL    HW230826   6.787   7.792   2.882  0.4247 -0.5438 -0.5230
 9878SOL     OW30827   3.075   8.260   3.932  0.6961  0.6906 -0.0446
 9878SOL    HW130828   3.004   8.210   3.973  0.1186  0.8118 -0.8799
 9878SOL    HW230829   3.093   8.214   3.850  0.4779  1.5672 -0.6019
 9879SOL     OW30830   8.173   7.762   2.203 -0.0430 -0.1101  0.4645
 9879SOL    HW130831   8.253   7.770   2.152 -0.6377  1.5589 -0.2965
 9879SOL    HW230832   8.118   7.834   2.172 -1.7346 -1.0522  1.1494
 9880SOL     OW30833   6.574   2.481   3.375 -0.5085  0.6308 -0.2986
 9880SOL    HW130834   6.510   2.436   3.320 -0.9626  3.5575 -2.4077
 9880SOL    HW230835   6.546   2.572   3.375  2.6620  1.7339  0.1502
 9881SOL     OW30836   4.128   0.458   1.333 -0.1461 -0.8254 -0.2987
 9881SOL    HW130837   4.085   0.432   1.252 -3.4540  0.1915  0.9636
 9881SOL    HW230838   4.116   0.553   1.337  0.4846 -0.7798  1.1173
 9882SOL     OW30839   8.207   5.494   7.751  0.5120 -0.3144 -0.1064
 9882SOL    HW130840   8.118   5.492   7.789  0.1648 -0.2180 -0.8994
 9882SOL    HW230841   8.255   5.555   7.808 -1.0062  2.7451 -1.8603
 9883SOL     OW30842   4.042   0.878   2.211 -0.3330  0.3416 -0.5042
 9883SOL    HW130843   3.949   0.898   2.201 -0.5940 -1.2445 -1.5026
 9883SOL    HW230844   4.051   0.844   2.299 -1.0853 -1.3650 -1.0587
 9884SOL     OW30845   0.953   4.083   4.983 -0.1791 -0.0139 -0.2160
 9884SOL    HW130846   0.909   3.998   4.983 -0.1000 -0.0751 -1.2686
 9884SOL    HW230847   1.037   4.067   4.939  0.3597  0.3638  0.6419
 9885SOL     OW30848   7.552   3.396   6.414 -0.1078 -0.0788 -0.3751
 9885SOL    HW130849   7.642   3.397   6.447 -0.3361 -1.4401  0.3855
 9885SOL    HW230850   7.507   3.463   6.466  0.6269  1.2116 -1.3479
 9886SOL     OW30851   1.917   4.515   6.807 -0.4530  0.0242 -0.2482
 9886SOL    HW130852   1.964   4.577   6.863  0.5802  0.1947 -1.2686
 9886SOL    HW230853   1.865   4.570   6.748 -0.7077 -0.1210 -0.1602
 9887SOL     OW30854   3.994   0.066   2.398 -0.3760  0.0755  0.0507
 9887SOL    HW130855   4.056  -0.007   2.408 -0.4280  0.0833  0.4499
 9887SOL    HW230856   4.041   0.129   2.344 -0.0692  0.0361  0.2625
 9888SOL     OW30857   8.013   1.140   5.345  0.1482 -0.5024  0.4181
 9888SOL    HW130858   8.033   1.049   5.365  0.6387 -1.1194 -2.3854
 9888SOL    HW230859   7.930   1.137   5.297  1.6078  0.0139 -2.4309
 9889SOL     OW30860   3.708   1.449   0.802 -0.0527  0.4874 -0.0763
 9889SOL    HW130861   3.744   1.394   0.871 -1.3886  0.0712  0.3254
 9889SOL    HW230862   3.783   1.472   0.748  0.4726 -2.5371 -0.8178
 9890SOL     OW30863   0.620   4.999   1.569  0.3814 -0.0575  0.1107
 9890SOL    HW130864   0.640   5.017   1.661 -0.1958 -0.9214  0.4169
 9890SOL    HW230865   0.538   4.950   1.571  0.8100 -0.8655 -0.7980
 9891SOL     OW30866   8.489   3.317   7.023  0.2107  0.4242 -0.1897
 9891SOL    HW130867   8.504   3.308   7.117  1.6217  0.6281 -0.3722
 9891SOL    HW230868   8.569   3.357   6.990  0.8137 -1.9224 -1.8268
 9892SOL     OW30869   4.408   7.130   3.941 -0.1941 -0.5524 -0.4550
 9892SOL    HW130870   4.402   7.220   3.971 -1.6712 -0.5202 -0.7733
 9892SOL    HW230871   4.426   7.079   4.019  0.0462 -0.0508 -0.1799
 9893SOL     OW30872   6.589   6.336   2.850 -0.4096 -0.0427 -0.4886
 9893SOL    HW130873   6.547   6.283   2.782 -0.4573  1.8145 -1.9918
 9893SOL    HW230874   6.653   6.389   2.803  1.7258 -0.8148  1.3681
 9894SOL     OW30875   1.721   2.097   1.795 -0.2360 -0.1900 -0.1180
 9894SOL    HW130876   1.660   2.049   1.851 -0.9525  1.1113  0.2780
 9894SOL    HW230877   1.802   2.102   1.845 -1.1297  1.7127  1.2715
 9895SOL     OW30878   3.471   6.587   1.856  0.0410  0.1271 -0.5800
 9895SOL    HW130879   3.408   6.654   1.827 -1.0900 -1.0444 -0.9635
 9895SOL    HW230880   3.446   6.568   1.946  1.0556  0.9716 -0.1040
 9896SOL     OW30881   6.309   6.023   1.965  0.2404  0.2012  0.3961
 9896SOL    HW130882   6.288   6.070   1.884  0.1512  0.5303  0.6066
 9896SOL    HW230883   6.326   6.093   2.029  0.4176 -0.0571  0.6331
 9897SOL     OW30884   6.113   8.588   3.004 -0.2039 -0.0096  0.4060
 9897SOL    HW130885   6.021   8.577   3.027 -0.2754 -0.6002 -0.1391
 9897SOL    HW230886   6.142   8.501   2.977  0.9178 -0.1451  1.9634
 9898SOL     OW30887   7.069   7.464   0.685 -0.1319 -0.1835 -0.0102
 9898SOL    HW130888   7.063   7.425   0.598 -1.1032  1.4913 -0.7442
 9898SOL    HW230889   7.074   7.389   0.745 -0.5456 -1.3838 -1.4186
 9899SOL     OW30890   1.827   3.170   2.587 -0.1055 -0.5071 -0.6900
 9899SOL    HW130891   1.820   3.211   2.673  0.6429 -1.5504 -0.1047
 9899SOL    HW230892   1.801   3.238   2.525  1.1999  0.8729  0.2303
 9900SOL     OW30893   0.340   5.741   7.048  0.1156  0.3627  0.0393
 9900SOL    HW130894   0.349   5.647   7.068  1.8626  0.6799  0.9090
 9900SOL    HW230895   0.256   5.766   7.087 -0.0148 -0.6760  0.4629
 9901SOL     OW30896   2.341   0.917   7.347  0.0976  0.1237 -0.1565
 9901SOL    HW130897   2.407   0.918   7.416 -1.6365  0.8215  1.5660
 9901SOL    HW230898   2.295   0.834   7.360 -1.5124  1.1306  0.8400
 9902SOL     OW30899   8.414   4.049   2.619  0.1615 -0.9220 -0.1829
 9902SOL    HW130900   8.468   4.079   2.546 -0.1008  0.2779  0.0821
 9902SOL    HW230901   8.437   3.957   2.631  0.8352 -0.9004 -1.2123
 9903SOL     OW30902   4.698   4.920   2.338 -0.3096 -0.5137  0.0377
 9903SOL    HW130903   4.677   4.994   2.395  3.5249 -1.2031  2.7383
 9903SOL    HW230904   4.644   4.848   2.371 -1.6569  0.2203 -0.4730
 9904SOL     OW30905   4.193   2.761   3.688  0.4818  0.1379  0.0602
 9904SOL    HW130906   4.099   2.753   3.676  0.2902  0.1459  1.3936
 9904SOL    HW230907   4.220   2.825   3.622 -0.3418 -0.3023 -0.7231
 9905SOL     OW30908   0.690   7.784   7.668  0.1926  0.4289  0.2273
 9905SOL    HW130909   0.594   7.790   7.661  0.1495  0.2842  0.6416
 9905SOL    HW230910   0.707   7.791   7.762  0.4807 -1.1586  0.3114
 9906SOL     OW30911   6.004   0.392   4.568  0.3041  0.4361 -0.7708
 9906SOL    HW130912   5.913   0.413   4.587  0.6662  2.5282 -1.1512
 9906SOL    HW230913   6.055   0.456   4.617  1.7557 -2.1635  1.4058
 9907SOL     OW30914   5.952   8.310   2.466  0.2581  0.3206  0.0321
 9907SOL    HW130915   5.997   8.235   2.428 -0.4466 -0.4395  0.6621
 9907SOL    HW230916   5.914   8.356   2.391 -1.3697 -1.3195 -0.2070
 9908SOL     OW30917   1.801   4.038   7.829  0.4637  0.0608  0.0328
 9908SOL    HW130918   1.867   3.979   7.865  0.6660 -0.7615 -1.5889
 9908SOL    HW230919   1.755   4.072   7.906 -0.3659 -3.0325  1.0496
 9909SOL     OW30920   7.850   6.210   6.869 -0.6646  0.1493  0.1060
 9909SOL    HW130921   7.858   6.186   6.777  1.3390 -1.4398  0.6079
 9909SOL    HW230922   7.940   6.207   6.902 -1.4272 -0.2673  2.3088
 9910SOL     OW30923   2.413   0.808   7.929  0.4004 -0.4805  0.4672
 9910SOL    HW130924   2.427   0.731   7.984  0.9163 -0.1338  0.8232
 9910SOL    HW230925   2.446   0.881   7.980  1.9199 -0.2776 -0.7284
 9911SOL     OW30926   2.598   4.929   6.784  0.5847  0.0771 -0.3472
 9911SOL    HW130927   2.610   4.890   6.698  0.6950  0.4897 -0.5201
 9911SOL    HW230928   2.518   4.980   6.777  1.5268  1.5568 -0.7439
 9912SOL     OW30929   2.524   7.918   4.378 -0.3446  0.4410  0.1835
 9912SOL    HW130930   2.573   7.980   4.323 -0.1362 -0.6199 -0.8684
 9912SOL    HW230931   2.591   7.879   4.434 -0.0636 -0.4969 -0.7680
 9913SOL     OW30932   0.400   0.896   2.420  0.3029  0.9028  0.2326
 9913SOL    HW130933   0.432   0.823   2.367 -2.1487  0.6281 -1.0359
 9913SOL    HW230934   0.403   0.971   2.360  1.4580  1.5651  1.0834
 9914SOL     OW30935   1.765   8.459   2.028 -0.6313 -0.0402 -0.0589
 9914SOL    HW130936   1.839   8.517   2.046 -0.8664  0.7297 -1.5057
 9914SOL    HW230937   1.708   8.468   2.105  0.8556 -0.8380  1.1937
 9915SOL     OW30938   7.341   7.039   8.035  0.3166  0.1171 -0.0950
 9915SOL    HW130939   7.352   7.127   8.072 -3.2008  0.2208  1.1424
 9915SOL    HW230940   7.328   7.054   7.942 -0.2304  0.9775  0.1009
 9916SOL     OW30941   7.375   2.399   5.302 -0.2539 -0.2275  0.4259
 9916SOL    HW130942   7.433   2.458   5.350 -1.8502  1.2750  0.5766
 9916SOL    HW230943   7.314   2.456   5.256 -1.8692 -1.7457  0.5677
 9917SOL     OW30944   7.045   7.078   5.332 -0.0580 -0.3067  0.1200
 9917SOL    HW130945   6.972   7.096   5.273 -0.3027  0.6875  0.7255
 9917SOL    HW230946   7.013   7.009   5.390 -0.4996  0.0949  0.3557
 9918SOL     OW30947   8.516   0.342   6.831 -0.2567  0.3810 -0.4352
 9918SOL    HW130948   8.510   0.425   6.877 -0.4220 -0.0345  0.3148
 9918SOL    HW230949   8.432   0.298   6.849  0.7875 -1.0379  1.3803
 9919SOL     OW30950   6.324   6.752   4.550  0.0039 -0.2646  0.2978
 9919SOL    HW130951   6.359   6.816   4.488 -0.9995  1.4718  1.4454
 9919SOL    HW230952   6.230   6.749   4.531  0.0761 -1.6900  0.0418
 9920SOL     OW30953   3.737   1.789   3.872  0.2858  0.4520 -0.0445
 9920SOL    HW130954   3.755   1.857   3.938 -0.6904 -0.0959  0.8174
 9920SOL    HW230955   3.671   1.828   3.815 -0.7763 -0.0000  0.8539
 9921SOL     OW30956   3.330   1.509   3.131  0.2657  0.0618  0.0911
 9921SOL    HW130957   3.380   1.548   3.059 -0.5315  0.5367 -0.2054
 9921SOL    HW230958   3.395   1.498   3.201  1.2590 -1.1726 -0.9488
 9922SOL     OW30959   7.306   3.146   4.955  0.2409  0.4594  0.4434
 9922SOL    HW130960   7.291   3.052   4.960 -2.5172  0.8163 -0.0203
 9922SOL    HW230961   7.286   3.178   5.043  1.3660  0.6450  0.6572
 9923SOL     OW30962   1.563   7.934   1.170  0.1641 -0.6305 -0.7871
 9923SOL    HW130963   1.471   7.961   1.176  0.3746 -0.1755  1.0258
 9923SOL    HW230964   1.611   8.015   1.154  0.2609 -0.8763 -1.7865
 9924SOL     OW30965   3.506   0.896   7.507 -0.0630 -0.0242  0.1127
 9924SOL    HW130966   3.499   0.907   7.412 -0.8540 -0.5562  0.0945
 9924SOL    HW230967   3.538   0.806   7.518  0.1996  0.0981  0.3467
 9925SOL     OW30968   4.549   8.263   4.601  0.5289 -0.3090 -0.6001
 9925SOL    HW130969   4.560   8.355   4.576  0.9592 -0.1771  0.0346
 9925SOL    HW230970   4.510   8.266   4.688  0.1487 -0.7374 -0.7509
 9926SOL     OW30971   2.950   5.719   3.943 -0.0274  0.1255 -0.3899
 9926SOL    HW130972   2.878   5.658   3.930  0.2864 -0.4607  0.5138
 9926SOL    HW230973   2.917   5.781   4.008  0.0343  0.2867 -0.5104
 9927SOL     OW30974   2.492   8.158   2.851 -0.1420 -0.6148  0.4853
 9927SOL    HW130975   2.426   8.125   2.912 -1.0024  0.9714  0.4507
 9927SOL    HW230976   2.562   8.093   2.854 -1.4074 -2.0104  1.0191
 9928SOL     OW30977   4.519   5.790   2.794  0.8439  0.0823 -0.0931
 9928SOL    HW130978   4.521   5.784   2.698 -1.6181 -0.3099 -0.1731
 9928SOL    HW230979   4.568   5.870   2.814  0.4652  0.7692 -1.7539
 9929SOL     OW30980   4.714   7.854   4.600  1.0504 -0.0194 -0.5168
 9929SOL    HW130981   4.710   7.936   4.551  1.5800 -0.7239 -1.8024
 9929SOL    HW230982   4.623   7.836   4.625  0.9418  0.9760 -0.1868
 9930SOL     OW30983   7.033   5.925   5.860  0.7406  0.1203 -0.1328
 9930SOL    HW130984   7.127   5.908   5.874  0.4502 -1.4549  0.0785
 9930SOL    HW230985   6.998   5.842   5.828 -0.2793  1.1726 -1.9482
 9931SOL     OW30986   0.335   2.097   4.546  0.2310 -0.0172 -0.2476
 9931SOL    HW130987   0.250   2.065   4.516 -0.0600  0.0937  0.4439
 9931SOL    HW230988   0.394   2.022   4.538  0.3658  0.2119 -1.8314
 9932SOL     OW30989   2.926   0.509   6.566  0.3581  0.4482  0.3065
 9932SOL    HW130990   2.968   0.463   6.640 -2.5298 -3.0617  0.0613
 9932SOL    HW230991   2.856   0.559   6.607  0.4151  0.6606  0.1423
 9933SOL     OW30992   1.641   7.655   1.767 -0.6956 -0.1000  0.0565
 9933SOL    HW130993   1.694   7.667   1.688 -1.0809 -0.3901 -0.2444
 9933SOL    HW230994   1.612   7.743   1.790 -0.7792 -0.0429 -0.2619
 9934SOL     OW30995   5.351   3.324   7.941  0.0305 -0.1368 -0.0698
 9934SOL    HW130996   5.292   3.382   7.893 -0.1572  0.2993  0.6600
 9934SOL    HW230997   5.436   3.335   7.899 -0.3841 -0.7194 -1.0874
 9935SOL     OW30998   2.414   6.654   2.171  0.1345  0.1332 -0.1677
 9935SOL    HW130999   2.324   6.645   2.141 -0.4374  2.2774  0.7409
 9935SOL    HW231000   2.450   6.727   2.121  1.8657 -1.5455 -1.5058
 9936SOL     OW31001   2.513   5.446   5.168 -0.5194  0.1485  0.1217
 9936SOL    HW131002   2.541   5.410   5.252  0.0110  2.8242  1.1860
 9936SOL    HW231003   2.446   5.510   5.190  1.0733  2.4205 -1.1811
 9937SOL     OW31004   3.051   7.562   6.507 -0.5173 -0.0890  0.3691
 9937SOL    HW131005   3.134   7.517   6.524 -1.5316 -1.9291  0.7334
 9937SOL    HW231006   3.033   7.547   6.414 -0.5402  0.1151  0.3406
 9938SOL     OW31007   4.074   0.899   3.212  0.0905 -0.2512 -0.3265
 9938SOL    HW131008   4.110   0.821   3.254 -0.1938 -0.7878 -1.0618
 9938SOL    HW231009   4.085   0.884   3.118 -0.1043  0.5253 -0.4818
 9939SOL     OW31010   4.335   5.730   6.048  0.3579  0.3955 -0.1802
 9939SOL    HW131011   4.394   5.655   6.040 -1.1344 -0.8717  0.3296
 9939SOL    HW231012   4.376   5.785   6.115  0.9568 -0.4603  0.1697
 9940SOL     OW31013   4.444   3.142   2.692  0.0935 -0.5228  0.4584
 9940SOL    HW131014   4.455   3.048   2.705 -1.6304 -0.8529 -0.3053
 9940SOL    HW231015   4.438   3.153   2.597 -0.8139  0.2047  0.5836
 9941SOL     OW31016   3.099   7.219   8.451  0.0719 -0.0112  0.1335
 9941SOL    HW131017   3.151   7.293   8.418  0.1381 -0.3178 -0.4786
 9941SOL    HW231018   3.161   7.165   8.499  0.2590 -0.2039 -0.3129
 9942SOL     OW31019   8.187   2.692   1.849  0.2944  0.1346 -0.1728
 9942SOL    HW131020   8.149   2.655   1.929  1.7680  0.1966  0.5967
 9942SOL    HW231021   8.190   2.786   1.865 -3.0667  0.6964 -1.9664
 9943SOL     OW31022   0.685   7.228   8.023 -0.2729 -0.4774  0.2257
 9943SOL    HW131023   0.612   7.213   7.964 -0.4875  1.0285  0.0755
 9943SOL    HW231024   0.720   7.313   7.997  0.1984 -0.2000  1.6677
 9944SOL     OW31025   2.241   1.031   1.769  0.4745 -0.2932 -0.1652
 9944SOL    HW131026   2.267   0.992   1.852 -2.5891 -0.4130  0.8373
 9944SOL    HW231027   2.187   1.106   1.792  2.4557  1.9062 -2.1047
 9945SOL     OW31028   2.614   2.378   2.302 -0.3068  0.1036  0.1893
 9945SOL    HW131029   2.546   2.441   2.326 -0.9913 -0.7967  0.7034
 9945SOL    HW231030   2.680   2.429   2.257 -0.9649  1.1407  0.3761
 9946SOL     OW31031   8.000   7.104   8.178 -0.5318 -0.9890 -0.0585
 9946SOL    HW131032   8.042   7.026   8.216  2.5411  1.3701  1.9228
 9946SOL    HW231033   8.063   7.134   8.112 -0.2401  1.2140  1.1184
 9947SOL     OW31034   5.733   8.488   5.643  0.3027  0.5769  0.0513
 9947SOL    HW131035   5.787   8.515   5.569  0.4621 -0.4621 -0.2253
 9947SOL    HW231036   5.666   8.431   5.605 -0.0471  0.6063  0.6093
 9948SOL     OW31037   7.791   1.534   7.565 -0.2694 -0.0899  0.1746
 9948SOL    HW131038   7.765   1.537   7.473  0.1693  2.5844  0.0417
 9948SOL    HW231039   7.881   1.568   7.565 -0.6799  1.0902  1.6748
 9949SOL     OW31040   5.655   1.593   5.938 -0.4044 -0.1349 -0.0621
 9949SOL    HW131041   5.578   1.536   5.939  0.1160 -0.8612 -0.3533
 9949SOL    HW231042   5.689   1.588   6.027  0.4622 -1.4575 -0.4291
 9950SOL     OW31043   5.097   1.092   7.173  0.3568 -0.3982  0.0152
 9950SOL    HW131044   5.022   1.034   7.163  0.7574 -0.5690 -2.7564
 9950SOL    HW231045   5.060   1.173   7.208 -1.3030 -0.2081 -2.0076
 9951SOL     OW31046   5.032   6.665   3.863 -0.0772  0.3340  0.2901
 9951SOL    HW131047   5.068   6.735   3.808 -1.5041 -0.2070 -1.4508
 9951SOL    HW231048   4.996   6.710   3.939  0.6893  1.2635  0.1298
 9952SOL     OW31049   6.522   6.637   2.833  0.3700  0.2129 -0.3641
 9952SOL    HW131050   6.498   6.546   2.848  2.2147  0.0039  1.8792
 9952SOL    HW231051   6.461   6.687   2.889  1.2647  0.1009  0.7439
 9953SOL     OW31052   4.982   5.227   3.300  0.2753 -0.0037 -0.1330
 9953SOL    HW131053   5.059   5.281   3.283  0.3835 -0.1680 -0.1730
 9953SOL    HW231054   4.981   5.164   3.229 -0.6546  0.8227 -0.8733
 9954SOL     OW31055   0.913   5.302   5.307  0.3749 -0.0512  0.1673
 9954SOL    HW131056   0.870   5.268   5.385  1.3727 -1.1157  0.2869
 9954SOL    HW231057   0.907   5.397   5.316  0.5721 -0.1490  1.5975
 9955SOL     OW31058   2.632   0.980   5.354  0.1195 -0.0325 -0.7345
 9955SOL    HW131059   2.622   0.910   5.289  1.4463  1.9269 -3.2175
 9955SOL    HW231060   2.708   0.954   5.406 -0.3589 -1.1574 -0.5634
 9956SOL     OW31061   3.589   8.564   3.553  0.4138 -0.3212  0.1224
 9956SOL    HW131062   3.683   8.581   3.543  0.5283 -0.0524  1.4351
 9956SOL    HW231063   3.572   8.490   3.495  1.6344 -0.9652  0.5351
 9957SOL     OW31064   4.370   8.476   7.931 -0.4530 -0.1772  0.0064
 9957SOL    HW131065   4.315   8.533   7.878 -0.5285 -0.8023 -0.5917
 9957SOL    HW231066   4.356   8.389   7.896 -0.7485 -0.6603  1.2516
 9958SOL     OW31067   5.189   2.007   4.812  0.3863  0.4770  0.1586
 9958SOL    HW131068   5.186   1.911   4.805 -3.6201  0.3162  1.5854
 9958SOL    HW231069   5.248   2.034   4.741  0.7694 -2.9513 -1.0260
 9959SOL     OW31070   3.606   6.931   0.426 -0.0769 -0.1345 -0.0070
 9959SOL    HW131071   3.653   6.865   0.477  1.0950 -0.1506 -1.0613
 9959SOL    HW231072   3.514   6.914   0.445  0.3052  0.3102  2.6008
 9960SOL     OW31073   3.742   1.875   0.477 -0.4690 -0.3886  0.0238
 9960SOL    HW131074   3.724   1.969   0.483 -2.7644 -0.6422 -1.6377
 9960SOL    HW231075   3.820   1.868   0.422  0.6328  0.5378  1.3932
 9961SOL     OW31076   4.847   0.959   5.995 -0.2667  0.3964 -0.4625
 9961SOL    HW131077   4.800   1.042   6.009 -1.2020 -0.4297  1.8286
 9961SOL    HW231078   4.779   0.896   5.971  0.3063  0.0668 -1.2656
 9962SOL     OW31079   5.917   6.543   4.750  0.5919  0.4145  0.4328
 9962SOL    HW131080   5.900   6.552   4.844  0.9499  0.8363  0.4590
 9962SOL    HW231081   5.896   6.628   4.713 -1.8573 -0.4023 -0.2601
 9963SOL     OW31082   6.174   5.974   0.406 -0.1556 -0.2249  0.2827
 9963SOL    HW131083   6.092   5.931   0.381 -0.2199  0.5995 -0.9554
 9963SOL    HW231084   6.237   5.902   0.412 -0.0440 -0.4920 -2.6257
 9964SOL     OW31085   0.958   3.974   7.081 -0.0281 -0.0220 -0.3508
 9964SOL    HW131086   0.985   4.056   7.122 -1.0611  0.5886 -0.8551
 9964SOL    HW231087   1.019   3.908   7.116 -0.8679  0.4458  2.1810
 9965SOL     OW31088   0.525   2.803   0.647 -0.4090  0.3956  0.0810
 9965SOL    HW131089   0.579   2.849   0.710 -0.2326  1.0122 -0.5118
 9965SOL    HW231090   0.588   2.761   0.588 -0.5685  0.8411 -0.4134
 9966SOL     OW31091   7.384   5.668   0.787  0.2876  0.1925 -0.2299
 9966SOL    HW131092   7.480   5.662   0.790  0.4144  0.8553 -1.7076
 9966SOL    HW231093   7.360   5.715   0.866  0.9614 -1.8935  1.3064
 9967SOL     OW31094   4.933   2.911   2.869 -0.4415 -0.3900  0.4815
 9967SOL    HW131095   5.003   2.872   2.816  1.8953  3.6965  0.1331
 9967SOL    HW231096   4.889   2.836   2.909  2.2224 -3.3667 -1.6212
 9968SOL     OW31097   7.550   0.195   7.882 -0.0492  0.0908 -0.4448
 9968SOL    HW131098   7.490   0.235   7.819  0.4392  0.4794 -0.6785
 9968SOL    HW231099   7.511   0.110   7.903 -1.2772  0.7937  0.2861
 9969SOL     OW31100   0.595   8.284   1.994  0.6249 -0.0743 -0.2786
 9969SOL    HW131101   0.573   8.291   1.901  1.4211 -1.7855 -0.6463
 9969SOL    HW231102   0.574   8.193   2.016 -1.7324  0.8508  1.8509
 9970SOL     OW31103   7.587   2.601   2.190 -0.2080  0.7544  0.3851
 9970SOL    HW131104   7.649   2.584   2.261  0.8210  0.7443 -0.5014
 9970SOL    HW231105   7.527   2.527   2.192  0.5811  0.1076  0.4476
 9971SOL     OW31106   2.634   6.757   8.168 -0.1098  0.4164  0.3742
 9971SOL    HW131107   2.676   6.672   8.183  0.5029  0.5777 -0.3708
 9971SOL    HW231108   2.546   6.735   8.137  0.2459  0.0445 -0.3879
 9972SOL     OW31109   8.094   3.419   7.363  0.4636 -0.3078 -0.0825
 9972SOL    HW131110   8.034   3.387   7.430 -0.3881  0.5299 -0.4127
 9972SOL    HW231111   8.146   3.343   7.339 -0.5349 -1.0897  0.1460
 9973SOL     OW31112   5.286   1.972   6.658 -0.4747 -0.1522  0.3009
 9973SOL    HW131113   5.312   1.880   6.655 -0.8341 -0.3242  1.7282
 9973SOL    HW231114   5.301   1.998   6.749 -0.6509  1.1223 -0.0147
 9974SOL     OW31115   1.655   8.360   1.758  0.1712  0.3310 -0.4333
 9974SOL    HW131116   1.665   8.403   1.843 -0.6874 -0.6855  0.2231
 9974SOL    HW231117   1.727   8.298   1.754  0.3088  0.4970 -0.5195
 9975SOL     OW31118   7.778   1.367   6.806 -0.2801 -0.1006 -0.4715
 9975SOL    HW131119   7.826   1.347   6.886  0.8921  0.5376 -0.9898
 9975SOL    HW231120   7.779   1.285   6.756 -2.0413 -0.8576  0.6235
 9976SOL     OW31121   5.243   8.162   8.567  0.2816 -0.9002 -0.0838
 9976SOL    HW131122   5.163   8.193   8.609  0.1428 -0.5173 -0.6136
 9976SOL    HW231123   5.289   8.113   8.635  0.5503  0.5565  0.8072
 9977SOL     OW31124   0.145   2.273   7.668 -0.1650 -0.2398 -0.0497
 9977SOL    HW131125   0.132   2.214   7.742 -0.7247 -1.5900 -1.1805
 9977SOL    HW231126   0.113   2.358   7.700 -0.6103 -0.8365  1.1759
 9978SOL     OW31127   0.422   2.450   1.270  0.1233  0.4472 -0.0266
 9978SOL    HW131128   0.461   2.525   1.225 -2.1182  1.1870 -0.8894
 9978SOL    HW231129   0.398   2.390   1.199 -0.9216  0.3493  0.3970
 9979SOL     OW31130   4.474   4.167   6.658 -0.2425  0.0713  0.0555
 9979SOL    HW131131   4.484   4.258   6.684 -1.5081  0.0796  0.5861
 9979SOL    HW231132   4.456   4.121   6.740  0.1199 -0.6255 -0.2436
 9980SOL     OW31133   6.640   4.269   0.186  0.2597  0.3301 -0.0540
 9980SOL    HW131134   6.554   4.301   0.162 -0.1110 -0.2164  0.5225
 9980SOL    HW231135   6.650   4.293   0.278 -0.6734 -2.4626  0.8876
 9981SOL     OW31136   1.930   2.009   0.486 -0.7657 -0.6688  0.2065
 9981SOL    HW131137   2.005   1.952   0.500 -0.8839 -0.8728  0.0195
 9981SOL    HW231138   1.935   2.033   0.393  0.2093  0.9487  0.6224
 9982SOL     OW31139   7.771   3.411   2.079 -0.0185 -0.3295 -0.1653
 9982SOL    HW131140   7.861   3.412   2.112 -0.1747  1.9646  0.3506
 9982SOL    HW231141   7.716   3.408   2.157 -0.4416 -1.9508 -0.4845
 9983SOL     OW31142   7.994   8.121   6.093  0.5415  0.7076  0.6890
 9983SOL    HW131143   7.952   8.038   6.114  0.3787 -0.3179 -3.0363
 9983SOL    HW231144   8.057   8.134   6.164 -0.5928 -1.7017  2.2790
 9984SOL     OW31145   6.214   5.241   7.404 -0.2421  0.1079  0.3894
 9984SOL    HW131146   6.153   5.233   7.477  0.6239 -2.4686  0.9298
 9984SOL    HW231147   6.300   5.241   7.444  0.2167  0.2174 -0.5658
 9985SOL     OW31148   2.941   0.636   1.155  0.0595  0.0370 -0.1278
 9985SOL    HW131149   2.883   0.653   1.229  0.1873 -0.1446  0.0142
 9985SOL    HW231150   2.944   0.541   1.147 -0.2599  0.0658 -0.6124
 9986SOL     OW31151   5.295   6.475   6.711 -0.4056 -0.4197 -0.0404
 9986SOL    HW131152   5.268   6.403   6.655 -0.4632 -0.6375  0.2651
 9986SOL    HW231153   5.378   6.446   6.749  0.3623  0.3113 -1.0988
 9987SOL     OW31154   1.930   4.858   2.303 -0.2415  0.4393  0.1761
 9987SOL    HW131155   1.836   4.840   2.313 -0.0097 -1.3137 -0.4515
 9987SOL    HW231156   1.970   4.771   2.302  1.3033  1.1381 -0.4074
 9988SOL     OW31157   5.146   5.860   6.239 -0.2559  0.2949 -0.5372
 9988SOL    HW131158   5.230   5.898   6.211 -0.1999  0.5666 -0.0304
 9988SOL    HW231159   5.154   5.855   6.335 -0.4509 -0.5720 -0.5614
 9989SOL     OW31160   8.429   1.412   7.092 -0.8543 -0.1401  0.1105
 9989SOL    HW131161   8.430   1.483   7.157 -0.2430  0.2276 -0.2903
 9989SOL    HW231162   8.489   1.347   7.128 -0.6814 -0.0310  0.0229
 9990SOL     OW31163   7.153   3.362   0.350 -0.2003  0.5307  0.2689
 9990SOL    HW131164   7.085   3.306   0.311 -0.4791  0.3863  0.9530
 9990SOL    HW231165   7.228   3.304   0.359  0.1509  0.7893 -0.8428
 9991SOL     OW31166   6.536   7.199   6.198 -0.0830 -0.2339  0.0846
 9991SOL    HW131167   6.449   7.177   6.165 -0.6815  0.5326  1.0701
 9991SOL    HW231168   6.587   7.221   6.120 -1.5166  1.7861 -0.3814
 9992SOL     OW31169   4.765   2.654   4.598 -0.2638 -0.4121 -0.3481
 9992SOL    HW131170   4.817   2.734   4.591  0.2774 -0.5671  1.4138
 9992SOL    HW231171   4.785   2.605   4.519 -0.2760  0.9973 -1.2527
 9993SOL     OW31172   2.498   5.796   6.693  0.4161  0.2903  0.0550
 9993SOL    HW131173   2.526   5.860   6.627  0.0748  0.7488  0.3510
 9993SOL    HW231174   2.421   5.835   6.734  0.1586 -0.3470  0.1905
 9994SOL     OW31175   0.705   4.908   0.860  1.0547  0.3327 -0.0086
 9994SOL    HW131176   0.776   4.935   0.917  1.1486  1.8948 -0.8006
 9994SOL    HW231177   0.637   4.974   0.872  0.4310 -0.1915 -0.5221
 9995SOL     OW31178   6.881   3.730   2.155 -0.1547 -0.1803 -0.1244
 9995SOL    HW131179   6.934   3.706   2.231  1.0093  0.6805 -0.6421
 9995SOL    HW231180   6.811   3.665   2.153  0.3983 -0.8354  1.0686
 9996SOL     OW31181   3.430   4.748   3.231 -0.0340 -0.0613 -0.5828
 9996SOL    HW131182   3.385   4.734   3.314 -2.0658 -0.9241 -1.7520
 9996SOL    HW231183   3.458   4.661   3.203  1.0473  0.2765 -0.6255
 9997SOL     OW31184   7.250   0.721   8.210  0.4000  0.2516  0.4580
 9997SOL    HW131185   7.237   0.632   8.178 -0.9650  1.4960 -2.8890
 9997SOL    HW231186   7.342   0.724   8.236  0.4633 -2.0848  0.7266
 9998SOL     OW31187   7.133   6.858   6.192  0.1216  0.6039  0.0174
 9998SOL    HW131188   7.085   6.913   6.130 -0.9345  0.0904  0.3574
 9998SOL    HW231189   7.146   6.914   6.269 -2.7347 -0.1534  1.1749
 9999SOL     OW31190   4.496   5.794   2.500  0.1414 -0.1592 -0.2410
 9999SOL    HW131191   4.548   5.850   2.442 -1.3910  1.6549  0.0071
 9999SOL    HW231192   4.430   5.755   2.442 -1.1199  1.3173  0.1029
10000SOL     OW31193   0.453   0.878   6.491  0.4128 -0.2908 -0.0332
10000SOL    HW131194   0.537   0.925   6.499  0.4081 -0.3008  0.0730
10000SOL    HW231195   0.478   0.792   6.458  0.2704  0.3461 -1.9278
10001SOL     OW31196   8.358   2.131   2.348 -0.3021  0.3735 -0.1950
10001SOL    HW131197   8.266   2.102   2.342 -1.1035  2.5275  0.6355
10001SOL    HW231198   8.362   2.177   2.432  1.0858  1.8163 -1.0194
10002SOL     OW31199   0.203   7.842   7.145 -0.1787 -0.1788 -0.4360
10002SOL    HW131200   0.210   7.753   7.111  0.3308 -1.5151  2.7779
10002SOL    HW231201   0.253   7.896   7.083  1.7005 -2.5573 -1.1177
10003SOL     OW31202   2.601   0.532   7.211  0.4400  0.1486 -0.3487
10003SOL    HW131203   2.544   0.556   7.284  0.1156 -0.5322 -0.3679
10003SOL    HW231204   2.625   0.441   7.228 -0.2283 -0.2529 -1.4550
10004SOL     OW31205   5.569   1.793   7.115  0.2868 -0.1725  0.4986
10004SOL    HW131206   5.593   1.719   7.170  2.1271 -1.0048 -1.3241
10004SOL    HW231207   5.493   1.762   7.065  0.8577 -0.7260 -0.0321
10005SOL     OW31208   1.727   3.852   4.246  0.1577 -0.1526  0.1521
10005SOL    HW131209   1.748   3.944   4.232 -2.3491  0.4974  0.0933
10005SOL    HW231210   1.753   3.835   4.336  0.4363  0.6914  0.2386
10006SOL     OW31211   7.483   1.519   1.847  0.0301  0.1785  0.6164
10006SOL    HW131212   7.410   1.554   1.898 -0.1697  0.5623  0.0711
10006SOL    HW231213   7.449   1.509   1.758  1.3364  2.8795 -0.3186
10007SOL     OW31214   8.482   2.873   6.662 -0.2273  0.4641 -0.3726
10007SOL    HW131215   8.571   2.856   6.631 -0.8190  0.1845 -2.0319
10007SOL    HW231216   8.483   2.846   6.754  0.6858 -2.2289 -1.0698
10008SOL     OW31217   1.081   4.782   5.756  0.5065 -0.1147 -0.1420
10008SOL    HW131218   1.073   4.731   5.837  1.0016  0.0328  0.0034
10008SOL    HW231219   0.990   4.793   5.726  0.3762 -0.9425 -0.0943
10009SOL     OW31220   1.553   0.030   1.308  0.8267 -0.5335 -0.6145
10009SOL    HW131221   1.469   0.058   1.344 -0.1605 -0.4940 -2.7754
10009SOL    HW231222   1.592  -0.024   1.377 -1.4465 -1.4090  0.0867
10010SOL     OW31223   2.825   5.300   4.480  0.2212 -0.4695  0.2216
10010SOL    HW131224   2.903   5.315   4.535 -1.3292  2.2011  1.9352
10010SOL    HW231225   2.841   5.353   4.401  0.4357 -0.4551  0.2741
10011SOL     OW31226   2.076   5.437   6.986 -0.2974  0.8498 -0.0420
10011SOL    HW131227   2.079   5.529   7.011  1.1935  0.4045  1.6127
10011SOL    HW231228   2.002   5.431   6.926 -2.7384  2.4527  2.5714
10012SOL     OW31229   3.956   7.254   2.261 -0.3527  0.1753 -0.0010
10012SOL    HW131230   3.988   7.167   2.237 -1.9352 -0.1623 -1.0450
10012SOL    HW231231   3.901   7.238   2.338  0.3841  0.4623  0.5957
10013SOL     OW31232   4.080   3.291   5.962  0.2732 -0.1349  0.1738
10013SOL    HW131233   4.028   3.212   5.978 -0.1015  0.2698  1.0172
10013SOL    HW231234   4.171   3.262   5.973  0.1345 -0.4487  0.5108
10014SOL     OW31235   8.322   8.372   6.651  0.1308  0.0346 -0.9365
10014SOL    HW131236   8.383   8.368   6.577 -0.3971 -1.2642 -1.3173
10014SOL    HW231237   8.360   8.312   6.716  0.2734  0.7130 -0.3855
10015SOL     OW31238   1.456   8.120   1.468  0.4259  0.3337 -0.2800
10015SOL    HW131239   1.543   8.082   1.473  0.3788  0.3811  1.2024
10015SOL    HW231240   1.470   8.214   1.466  0.4377  0.3241 -1.3131
10016SOL     OW31241   2.173   6.699   4.590 -0.3664  0.4414 -0.4141
10016SOL    HW131242   2.207   6.652   4.514 -0.5089 -2.1227  0.9830
10016SOL    HW231243   2.078   6.698   4.578 -0.3456  0.8223 -0.6200
10017SOL     OW31244   1.820   7.709   8.498 -0.3767  0.2500 -0.3498
10017SOL    HW131245   1.768   7.762   8.437  1.0508  0.9713 -0.9765
10017SOL    HW231246   1.891   7.766   8.526  0.6881 -1.0319 -0.3195
10018SOL     OW31247   5.109   3.522   8.063 -0.2153  0.0382 -0.3502
10018SOL    HW131248   5.089   3.535   7.971  0.1384 -1.0232 -0.5908
10018SOL    HW231249   5.094   3.429   8.078  0.5465  0.0289  0.4528
10019SOL     OW31250   2.010   0.224   3.953  0.2816 -0.0230 -0.2521
10019SOL    HW131251   2.076   0.277   3.998 -1.3256  1.8242  0.1142
10019SOL    HW231252   1.967   0.286   3.893 -0.2431 -1.4818 -1.4615
10020SOL     OW31253   1.728   6.539   6.913 -0.0639  0.2178  0.2278
10020SOL    HW131254   1.783   6.568   6.840  0.4643 -1.1195  0.0727
10020SOL    HW231255   1.782   6.551   6.991  0.6902 -1.5993  0.0215
10021SOL     OW31256   7.282   3.801   5.224 -0.1677 -0.2698 -0.6966
10021SOL    HW131257   7.220   3.731   5.244 -1.4263  0.7707 -0.8624
10021SOL    HW231258   7.338   3.807   5.302 -0.0072 -1.4686 -0.6999
10022SOL     OW31259   7.036   7.345   7.175 -0.5251  0.1014 -0.2413
10022SOL    HW131260   6.970   7.295   7.127 -1.6818 -0.0359  1.4009
10022SOL    HW231261   6.989   7.382   7.250  1.3442 -0.4093  1.2740
10023SOL     OW31262   8.397   6.316   5.322 -0.1293 -0.2278 -0.0131
10023SOL    HW131263   8.469   6.254   5.307 -0.2507 -0.2899 -0.3508
10023SOL    HW231264   8.440   6.400   5.336  0.0585 -0.4649  0.8853
10024SOL     OW31265   5.137   0.833   0.856  0.2932  0.1128 -0.5174
10024SOL    HW131266   5.227   0.860   0.842 -0.0625  1.5640 -0.1929
10024SOL    HW231267   5.127   0.830   0.951  0.3148 -1.2219 -0.5385
10025SOL     OW31268   5.717   1.514   8.068  0.1989  0.5241 -0.0401
10025SOL    HW131269   5.778   1.584   8.090 -1.2082  1.9517 -0.4264
10025SOL    HW231270   5.723   1.506   7.973  0.9003 -0.4263  0.0776
10026SOL     OW31271   4.761   5.878   6.764  0.4318 -0.2743 -0.1402
10026SOL    HW131272   4.740   5.868   6.671  3.4592  0.7505 -1.0624
10026SOL    HW231273   4.788   5.969   6.772  1.3205 -0.6476  1.4684
10027SOL     OW31274   1.345   7.367   3.561  0.1687  0.7699 -0.0527
10027SOL    HW131275   1.311   7.337   3.645  0.4136  0.9478  0.1101
10027SOL    HW231276   1.292   7.444   3.540 -0.0311  0.6023 -0.1609
10028SOL     OW31277   2.969   4.112   0.770 -0.3275  0.0910 -0.5447
10028SOL    HW131278   3.019   4.192   0.783 -0.6741 -0.0121  1.7604
10028SOL    HW231279   3.005   4.074   0.690  2.3299  0.7118  0.2615
10029SOL     OW31280   7.112   4.621   6.093 -0.3400 -0.0006 -0.1221
10029SOL    HW131281   7.058   4.627   6.013  0.2941 -1.9130 -0.7662
10029SOL    HW231282   7.195   4.661   6.069 -0.4253  0.1466 -0.1697
10030SOL     OW31283   3.577   5.743   4.461  0.8387  0.3553 -0.2454
10030SOL    HW131284   3.630   5.820   4.437  0.5883 -0.0350 -2.2029
10030SOL    HW231285   3.589   5.683   4.388 -1.2942 -0.2750 -0.1242
10031SOL     OW31286   7.547   6.362   1.346  0.3688  0.2751 -0.0682
10031SOL    HW131287   7.504   6.360   1.261  0.7135  1.9330 -0.3231
10031SOL    HW231288   7.638   6.340   1.327  0.3693  0.2772 -0.0681
10032SOL     OW31289   3.843   4.617   3.675  0.1527 -0.3158 -0.1436
10032SOL    HW131290   3.892   4.666   3.609  0.0351  0.4895  0.3573
10032SOL    HW231291   3.754   4.614   3.641  0.6012 -2.2293 -1.3098
10033SOL     OW31292   7.267   8.383   3.773 -0.4733 -0.0310 -0.3123
10033SOL    HW131293   7.241   8.475   3.769  0.6134  0.2752 -0.6178
10033SOL    HW231294   7.217   8.341   3.702  2.5174  1.2624 -3.4638
10034SOL     OW31295   1.967   7.922   3.805 -0.0046  0.6132  0.0116
10034SOL    HW131296   2.009   7.887   3.726  2.1926 -1.5163  1.9620
10034SOL    HW231297   1.953   7.845   3.860 -1.8480  1.9807  1.6015
10035SOL     OW31298   2.079   8.019   7.488 -0.0338 -0.2778 -0.5673
10035SOL    HW131299   2.097   8.096   7.434  1.4597 -0.3599 -0.2410
10035SOL    HW231300   2.160   8.006   7.538 -0.5409 -1.6016 -0.0503
10036SOL     OW31301   7.367   5.328   8.220  0.5492 -0.1150 -0.0677
10036SOL    HW131302   7.446   5.301   8.267  1.1975  0.3393 -0.8642
10036SOL    HW231303   7.309   5.362   8.288  1.2437  0.0189  0.4679
10037SOL     OW31304   7.181   2.400   3.384 -0.1825 -0.1059 -0.3203
10037SOL    HW131305   7.106   2.438   3.429 -0.6235  0.6942 -1.6612
10037SOL    HW231306   7.235   2.362   3.454 -1.4878 -0.0983  0.7192
10038SOL     OW31307   6.151   6.418   2.630  0.4884 -0.2062 -0.3080
10038SOL    HW131308   6.078   6.367   2.664  1.4274 -0.9212  0.6839
10038SOL    HW231309   6.121   6.509   2.636 -0.0213 -0.4346  0.8259
10039SOL     OW31310   3.506   4.825   0.075 -0.0073  0.2478  0.4677
10039SOL    HW131311   3.517   4.919   0.087 -1.7072  0.3483  1.6124
10039SOL    HW231312   3.411   4.814   0.063  0.2429 -1.2543 -0.4037
10040SOL     OW31313   5.966   4.971   4.402  0.3079  0.5303  0.1032
10040SOL    HW131314   6.029   4.990   4.473 -0.0768  2.9640 -0.1177
10040SOL    HW231315   5.995   5.026   4.329 -0.6239 -0.2367 -0.8775
10041SOL     OW31316   3.575   0.066   0.373 -0.3498  0.2370  0.2884
10041SOL    HW131317   3.561   0.154   0.408 -0.0855 -0.2656  1.7380
10041SOL    HW231318   3.670   0.058   0.365 -0.3938  0.2297 -0.2511
10042SOL     OW31319   1.554   1.445   8.183 -0.8089  0.2326  0.2726
10042SOL    HW131320   1.548   1.349   8.175  1.6267  0.0561 -0.1810
10042SOL    HW231321   1.631   1.459   8.238 -2.6896  1.9593  2.7007
10043SOL     OW31322   7.926   2.336   4.151  0.0386 -0.3930 -0.2646
10043SOL    HW131323   7.875   2.343   4.071  0.8961 -0.1496 -0.8077
10043SOL    HW231324   7.932   2.242   4.168 -1.3597 -0.4013  0.3345
10044SOL     OW31325   1.315   1.801   0.355  0.5111 -0.0077  0.3045
10044SOL    HW131326   1.364   1.719   0.344 -1.3805 -1.0338 -0.8701
10044SOL    HW231327   1.314   1.815   0.450  1.1380 -1.1698  0.5087
10045SOL     OW31328   4.983   8.538   5.902  0.6038 -0.0851 -0.3034
10045SOL    HW131329   4.999   8.467   5.964  2.2542 -1.4163 -2.1388
10045SOL    HW231330   4.888   8.542   5.893  0.2841  0.2929  2.3773
10046SOL     OW31331   5.868   5.999   3.652 -0.3162  0.0773  0.5564
10046SOL    HW131332   5.885   5.905   3.663  0.6305  0.2198  0.4200
10046SOL    HW231333   5.897   6.038   3.734  1.2809  0.4710 -0.1440
10047SOL     OW31334   1.970   2.120   5.093 -0.0387 -0.1298  0.0205
10047SOL    HW131335   1.893   2.112   5.036  0.0956  1.3005 -0.3864
10047SOL    HW231336   1.934   2.124   5.181 -0.3141 -1.1720 -0.0280
10048SOL     OW31337   3.436   7.522   6.663 -0.1193  0.0616  0.4264
10048SOL    HW131338   3.462   7.595   6.719 -1.1175 -0.7756  2.0454
10048SOL    HW231339   3.446   7.445   6.718  0.2605 -0.9858 -1.0298
10049SOL     OW31340   5.270   1.035   5.061  0.0232 -0.2639  0.0446
10049SOL    HW131341   5.193   0.993   5.100  0.7970 -0.6884  1.1860
10049SOL    HW231342   5.338   0.968   5.065  0.4941  0.1403 -0.8457
10050SOL     OW31343   1.694   6.583   7.929  0.5749 -0.0320 -0.5645
10050SOL    HW131344   1.678   6.677   7.923  1.9878  0.1269 -2.6139
10050SOL    HW231345   1.630   6.544   7.869 -0.4900 -0.4841  0.8107
10051SOL     OW31346   7.739   5.251   2.727  0.1161 -0.1826 -0.4838
10051SOL    HW131347   7.791   5.171   2.714 -1.5572 -1.7280  1.6697
10051SOL    HW231348   7.799   5.311   2.771  0.7837 -1.0413 -0.1862
10052SOL     OW31349   0.999   3.592   1.155 -0.0680 -0.2814  0.0562
10052SOL    HW131350   1.026   3.531   1.087 -0.5552 -0.4665  0.0236
10052SOL    HW231351   0.912   3.562   1.181 -0.2401  0.2941  0.1623
10053SOL     OW31352   0.234   8.062   0.489  0.3626 -0.3141  0.2809
10053SOL    HW131353   0.306   8.030   0.544 -0.4405 -0.4606  1.2624
10053SOL    HW231354   0.161   8.075   0.550  0.0013  1.2751 -0.4550
10054SOL     OW31355   5.341   1.056   6.831 -0.1928  0.3061 -0.0348
10054SOL    HW131356   5.409   1.103   6.782 -0.1197 -0.3007 -0.5222
10054SOL    HW231357   5.321   0.980   6.777 -0.8677  0.1861  0.3776
10055SOL     OW31358   3.489   1.886   8.445 -0.5762  0.2068  0.4830
10055SOL    HW131359   3.561   1.927   8.397 -1.9921  0.0893 -1.9589
10055SOL    HW231360   3.433   1.959   8.470 -2.4337  0.1042 -2.7317
10056SOL     OW31361   1.327   5.392   7.494 -0.2357  0.0211 -0.3071
10056SOL    HW131362   1.245   5.438   7.476 -1.0496 -0.9465  0.7920
10056SOL    HW231363   1.368   5.381   7.408 -1.2001  0.6136 -0.8511
10057SOL     OW31364   6.350   3.500   8.547 -0.4342 -0.3176 -0.8885
10057SOL    HW131365   6.256   3.520   8.548 -0.5302 -0.6758  0.7659
10057SOL    HW231366   6.353   3.405   8.563  0.2126  0.0271  1.4866
10058SOL     OW31367   7.186   6.604   1.499 -0.1414 -0.2746  0.0901
10058SOL    HW131368   7.222   6.561   1.576 -0.0179  0.3422  0.3783
10058SOL    HW231369   7.111   6.549   1.474 -1.7900  0.9018  2.1732
10059SOL     OW31370   3.046   4.025   6.585  0.1957  0.2887 -0.3405
10059SOL    HW131371   2.979   4.024   6.654  0.1523 -0.0432 -0.3853
10059SOL    HW231372   3.124   4.060   6.627 -0.2475  1.5478 -0.5171
10060SOL     OW31373   4.536   3.466   5.474  0.8993  0.4480 -0.0620
10060SOL    HW131374   4.530   3.537   5.538  1.9134 -0.1099  0.6811
10060SOL    HW231375   4.452   3.421   5.481  1.2415 -0.0078  1.3792
10061SOL     OW31376   5.514   5.606   7.433 -0.4251  0.5081  0.3520
10061SOL    HW131377   5.433   5.603   7.381 -0.5302 -0.6224  0.5689
10061SOL    HW231378   5.578   5.648   7.375 -0.3467 -1.3795 -1.0096
10062SOL     OW31379   2.928   8.074   7.046 -0.4480 -0.7916 -0.8252
10062SOL    HW131380   2.870   8.032   6.982  0.6922 -2.2835 -0.9257
10062SOL    HW231381   2.926   8.167   7.022 -1.4258 -1.0654 -1.9022
10063SOL     OW31382   0.438   4.525   6.276  0.2287  0.0189 -0.2257
10063SOL    HW131383   0.527   4.537   6.243  0.2957  1.4529  0.3987
10063SOL    HW231384   0.445   4.452   6.337  0.6978 -0.7073 -1.1122
10064SOL     OW31385   8.336   6.926   1.793  0.2020 -0.0089 -0.4905
10064SOL    HW131386   8.321   6.991   1.862 -0.7867 -0.0927 -0.6077
10064SOL    HW231387   8.427   6.940   1.765 -0.3979  2.3222 -1.5242
10065SOL     OW31388   5.489   1.583   3.592  0.4380 -0.2655  0.0342
10065SOL    HW131389   5.518   1.535   3.669  0.0880 -0.8292 -0.1792
10065SOL    HW231390   5.567   1.589   3.537  1.1703  1.6961  1.1886
10066SOL     OW31391   4.898   3.133   6.119  0.0974  0.0470  0.7184
10066SOL    HW131392   4.939   3.195   6.179 -0.3923  0.1002  1.0025
10066SOL    HW231393   4.966   3.068   6.101  0.3214  0.1619  1.1441
10067SOL     OW31394   3.792   2.418   0.515  0.2374  0.3450 -0.3026
10067SOL    HW131395   3.791   2.514   0.515  0.1913  0.3451 -0.2587
10067SOL    HW231396   3.864   2.394   0.457  0.4177  0.4072 -0.1041
10068SOL     OW31397   3.183   7.225   2.636  0.0360  0.0618 -0.7423
10068SOL    HW131398   3.097   7.262   2.616 -0.0095 -0.7150 -2.1562
10068SOL    HW231399   3.212   7.272   2.714 -1.4185  0.7382 -0.5670
10069SOL     OW31400   7.242   3.677   5.919 -0.3762  0.0391 -0.4075
10069SOL    HW131401   7.215   3.751   5.974 -0.4928 -0.2575 -0.0621
10069SOL    HW231402   7.171   3.613   5.929  1.0890 -1.3799  1.6906
10070SOL     OW31403   2.283   8.224   7.061 -0.1861  0.0787  0.1025
10070SOL    HW131404   2.336   8.303   7.070  0.2729 -0.1300 -0.6270
10070SOL    HW231405   2.213   8.249   7.001 -0.3052  0.0593  0.2331
10071SOL     OW31406   0.474   6.880   4.276  0.4188 -0.0392 -0.3575
10071SOL    HW131407   0.395   6.933   4.260  0.6647  0.0655 -1.2865
10071SOL    HW231408   0.489   6.834   4.194  2.1390  1.0288 -0.6878
10072SOL     OW31409   8.485   3.492   4.090  0.3493 -0.2905  0.6509
10072SOL    HW131410   8.450   3.419   4.039  1.2744  0.1929 -0.7517
10072SOL    HW231411   8.579   3.472   4.097  0.3741  0.0888  1.4383
10073SOL     OW31412   7.374   5.054   5.631  0.0927 -0.3278  0.2455
10073SOL    HW131413   7.300   5.031   5.574  2.7605 -2.3474 -2.8000
10073SOL    HW231414   7.392   5.145   5.609 -1.3481  0.1503  0.9254
10074SOL     OW31415   8.327   4.554   5.254 -0.2147 -0.1074  0.1769
10074SOL    HW131416   8.263   4.509   5.199  1.4118 -1.6583 -0.5688
10074SOL    HW231417   8.383   4.602   5.193  0.7635 -0.7191  0.5632
10075SOL     OW31418   2.187   0.404   2.003 -0.2807  0.1300  0.3310
10075SOL    HW131419   2.235   0.329   1.969  2.9563  1.0315  2.4635
10075SOL    HW231420   2.244   0.479   1.986 -0.8246  1.2847  3.1193
10076SOL     OW31421   8.576   3.065   7.950 -0.8375 -0.1439 -0.0594
10076SOL    HW131422   8.616   3.059   7.864  0.3703  0.9521  0.3876
10076SOL    HW231423   8.645   3.035   8.010 -0.4755  2.1413  0.7571
10077SOL     OW31424   2.710   1.176   8.282 -0.0634  0.1588 -0.0218
10077SOL    HW131425   2.786   1.186   8.339 -0.4831  1.0966  0.3953
10077SOL    HW231426   2.737   1.213   8.199 -0.2600  1.1299  0.3241
10078SOL     OW31427   6.657   0.445   6.588  0.2075 -0.2338  0.4223
10078SOL    HW131428   6.734   0.497   6.612  0.0828 -0.2931  0.9661
10078SOL    HW231429   6.615   0.496   6.519 -0.8197  1.2739  2.0588
10079SOL     OW31430   5.188   5.281   8.225 -0.0767 -0.1956  0.1836
10079SOL    HW131431   5.250   5.208   8.218  0.4076  0.3178 -1.2650
10079SOL    HW231432   5.173   5.291   8.319  0.7735 -1.3860  0.4652
10080SOL     OW31433   4.300   1.491   3.914 -0.0560  0.2836  0.4811
10080SOL    HW131434   4.289   1.494   3.819 -0.2323  1.3315  0.5200
10080SOL    HW231435   4.220   1.449   3.947  0.7711 -1.6944  0.0679
10081SOL     OW31436   7.298   7.246   7.183  0.6153 -0.1907 -0.0476
10081SOL    HW131437   7.203   7.262   7.177  0.5349 -0.7211 -0.2216
10081SOL    HW231438   7.316   7.245   7.276  0.2767 -1.0556  0.0188
10082SOL     OW31439   2.592   4.462   0.330 -0.8942  0.4198 -0.1091
10082SOL    HW131440   2.567   4.391   0.388  0.8313  0.2308  0.4559
10082SOL    HW231441   2.618   4.533   0.388 -1.7856  1.2347 -0.6685
10083SOL     OW31442   0.991   8.020   3.019  0.0617 -0.1872 -0.4599
10083SOL    HW131443   0.900   7.992   3.029 -0.0424  0.1696 -0.4124
10083SOL    HW231444   1.041   7.938   3.018 -0.1053 -0.3159  0.9765
10084SOL     OW31445   7.150   0.465   2.453  0.2234 -0.0706 -0.6604
10084SOL    HW131446   7.059   0.454   2.479  0.2070  0.7980 -0.3106
10084SOL    HW231447   7.185   0.376   2.447 -0.9349 -0.4798 -1.8911
10085SOL     OW31448   6.491   1.918   8.302 -0.0408  0.0310  0.0710
10085SOL    HW131449   6.437   1.840   8.287  0.6948 -0.2909 -1.0965
10085SOL    HW231450   6.563   1.909   8.240  0.1200  1.5997 -0.0137
10086SOL     OW31451   0.607   2.021   6.249  0.2374 -0.2530  0.2357
10086SOL    HW131452   0.625   1.940   6.202 -0.7458  0.4729 -1.5012
10086SOL    HW231453   0.568   2.079   6.183 -0.0631  1.2701  1.6725
10087SOL     OW31454   1.550   3.340   7.070 -0.4860  0.0852  0.1514
10087SOL    HW131455   1.558   3.431   7.098  1.3423  0.3833 -1.2069
10087SOL    HW231456   1.569   3.289   7.149  1.1426  0.8975  0.3142
10088SOL     OW31457   6.743   0.591   3.072  0.4921 -0.0416 -0.6610
10088SOL    HW131458   6.737   0.649   3.149 -1.5780 -0.7000 -0.2584
10088SOL    HW231459   6.800   0.520   3.100 -0.0900 -0.1752  0.2248
10089SOL     OW31460   2.659   0.479   1.634  0.0087  0.1733 -0.0171
10089SOL    HW131461   2.724   0.545   1.658 -0.5208 -0.0669  2.3232
10089SOL    HW231462   2.698   0.397   1.664 -0.0714 -0.3847 -1.3958
10090SOL     OW31463   5.496   1.620   3.081 -0.3542 -0.0266  0.4454
10090SOL    HW131464   5.572   1.671   3.053 -0.4515  0.5734  1.2603
10090SOL    HW231465   5.532   1.536   3.109 -0.0555  0.0650  0.3402
10091SOL     OW31466   4.313   0.719   0.081  0.0459 -0.0087  0.5573
10091SOL    HW131467   4.350   0.636   0.109  3.0434  0.9431 -0.1776
10091SOL    HW231468   4.375   0.785   0.112 -2.8310  2.1777  2.2215
10092SOL     OW31469   3.091   2.484   4.049  0.2309  0.6873 -0.3366
10092SOL    HW131470   3.004   2.523   4.041  0.0219  0.3818  0.3417
10092SOL    HW231471   3.133   2.533   4.120  0.0330 -0.1574  0.3974
10093SOL     OW31472   0.071   5.565   5.691  0.0022 -0.2289  0.3051
10093SOL    HW131473   0.049   5.651   5.727  0.5154  0.1910 -0.3650
10093SOL    HW231474   0.166   5.569   5.676 -0.0593 -0.7224 -0.2376
10094SOL     OW31475   7.026   7.312   0.464  0.1130  0.6767 -0.6058
10094SOL    HW131476   6.953   7.314   0.526  2.0318  2.4886  1.7938
10094SOL    HW231477   6.999   7.371   0.394 -0.9154  0.9857  0.0285
10095SOL     OW31478   5.636   2.681   0.634 -0.0301  0.3360 -0.1269
10095SOL    HW131479   5.705   2.642   0.688  0.5228  0.9100 -0.3867
10095SOL    HW231480   5.635   2.629   0.554 -0.3050 -0.0352  0.1197
10096SOL     OW31481   6.192   1.747   5.736 -0.7514 -0.5016  0.0340
10096SOL    HW131482   6.209   1.686   5.664 -0.3636 -0.0255 -0.2865
10096SOL    HW231483   6.132   1.700   5.794  0.0988 -1.4695  0.1668
10097SOL     OW31484   6.727   1.644   0.207 -0.0111  0.1859 -0.2537
10097SOL    HW131485   6.785   1.603   0.144 -0.6279 -0.5339 -0.3674
10097SOL    HW231486   6.698   1.572   0.263 -0.3191  0.6361  0.1729
10098SOL     OW31487   3.350   0.164   3.403  0.3448  0.1985 -0.8312
10098SOL    HW131488   3.387   0.113   3.476  1.1997  0.7713 -0.8498
10098SOL    HW231489   3.296   0.230   3.445 -0.3875 -0.4201 -0.7864
10099SOL     OW31490   2.804   1.224   2.794  0.7001  0.1909 -0.1801
10099SOL    HW131491   2.868   1.154   2.781  1.9213  1.3150 -0.4253
10099SOL    HW231492   2.760   1.201   2.876  0.6484 -1.1633 -0.5619
10100SOL     OW31493   8.214   8.025   4.259  0.0580 -0.7420  0.2236
10100SOL    HW131494   8.166   8.107   4.268  3.7166  1.7045 -0.4100
10100SOL    HW231495   8.235   8.000   4.349 -0.1316 -0.3525  0.3783
10101SOL     OW31496   4.504   0.953   4.116  0.7346 -0.5620  0.0609
10101SOL    HW131497   4.446   0.878   4.123  0.1468 -0.1195 -0.0168
10101SOL    HW231498   4.475   1.013   4.185  0.1027  0.3140 -0.9335
10102SOL     OW31499   4.560   2.150   2.844  0.0382  0.1590 -0.3130
10102SOL    HW131500   4.555   2.175   2.752 -0.3987  0.6396 -0.1690
10102SOL    HW231501   4.611   2.069   2.845  0.1079  0.1904 -0.9670
10103SOL     OW31502   3.420   4.221   5.545 -0.1565 -0.4104 -0.1669
10103SOL    HW131503   3.488   4.156   5.561 -0.5932 -0.8836 -0.2269
10103SOL    HW231504   3.428   4.241   5.451  1.0250  0.8200  0.1558
10104SOL     OW31505   4.122   0.139   4.399 -0.0692  0.2199 -0.0689
10104SOL    HW131506   4.112   0.169   4.490 -0.0475 -0.4826  0.1655
10104SOL    HW231507   4.086   0.211   4.347 -0.2802  0.5373  0.5043
10105SOL     OW31508   5.156   6.279   3.896 -0.7513  0.3116  0.2606
10105SOL    HW131509   5.240   6.305   3.857 -0.2383 -0.8343  0.5677
10105SOL    HW231510   5.091   6.304   3.831 -0.2139  1.4740  0.1353
10106SOL     OW31511   0.696   2.482   5.258  0.0412  0.0036  0.2144
10106SOL    HW131512   0.783   2.520   5.247 -0.4100  1.5294  1.5078
10106SOL    HW231513   0.657   2.484   5.170  0.6743  0.9561 -0.0533
10107SOL     OW31514   7.094   3.695   0.824 -0.0957  0.0799  0.1467
10107SOL    HW131515   7.126   3.769   0.772  0.9038 -1.3640 -1.3746
10107SOL    HW231516   7.063   3.632   0.760  2.0217 -2.1823  1.1577
10108SOL     OW31517   2.814   4.365   1.924  0.0464 -0.0804 -0.1787
10108SOL    HW131518   2.738   4.312   1.901 -0.1656 -0.6336  1.6627
10108SOL    HW231519   2.889   4.314   1.893 -0.2618  1.0256 -3.1268
10109SOL     OW31520   3.612   1.159   4.677 -0.2117  0.1957 -0.3380
10109SOL    HW131521   3.537   1.115   4.637 -0.0424  0.6106 -1.1443
10109SOL    HW231522   3.630   1.233   4.619  2.2168 -1.1525 -1.4480
10110SOL     OW31523   1.865   6.324   5.101 -0.3535  1.0476  0.4748
10110SOL    HW131524   1.932   6.262   5.131  0.1459  1.5428  0.4096
10110SOL    HW231525   1.785   6.272   5.095 -0.0505  0.5188  0.8797
10111SOL     OW31526   3.860   3.893   1.463  0.4616 -0.4831  0.4648
10111SOL    HW131527   3.803   3.823   1.431 -0.5000  0.6451 -0.3304
10111SOL    HW231528   3.903   3.855   1.540  0.2017 -2.0541 -0.1281
10112SOL     OW31529   0.173   1.090   3.140  1.1339 -0.4473 -0.4718
10112SOL    HW131530   0.187   1.063   3.049  2.7346  0.0465 -0.4058
10112SOL    HW231531   0.116   1.023   3.177  0.7281 -0.8271 -1.7471
10113SOL     OW31532   5.038   0.879   2.146 -0.0223  0.0285  0.1064
10113SOL    HW131533   4.964   0.840   2.100  0.5517 -2.1616  0.9514
10113SOL    HW231534   5.029   0.851   2.237  2.2616 -1.0149  0.0789
10114SOL     OW31535   3.592   4.337   1.088  0.0121  0.0845  0.4927
10114SOL    HW131536   3.586   4.361   0.995 -0.4832  2.6183  1.1061
10114SOL    HW231537   3.677   4.369   1.116 -0.5113  0.8145  1.2833
10115SOL     OW31538   5.152   7.621   2.473 -0.1019  0.4849  0.0817
10115SOL    HW131539   5.181   7.573   2.550  0.3167  2.2611  1.0973
10115SOL    HW231540   5.154   7.713   2.500 -1.5746  1.0504 -1.5169
10116SOL     OW31541   8.458   5.316   4.085 -0.3626  0.0037  0.1438
10116SOL    HW131542   8.394   5.353   4.146  0.0326 -0.4007  0.8191
10116SOL    HW231543   8.421   5.333   3.998 -0.2957  1.7768  0.4238
10117SOL     OW31544   2.228   3.828   1.692  0.8268 -0.4048 -0.0497
10117SOL    HW131545   2.173   3.774   1.749  1.7366  0.0779  1.3244
10117SOL    HW231546   2.186   3.915   1.694  0.5863 -0.5023 -0.5357
10118SOL     OW31547   2.219   2.325   0.552  0.3395 -0.2982 -0.5328
10118SOL    HW131548   2.180   2.315   0.639  1.9854 -0.0693  0.2582
10118SOL    HW231549   2.150   2.366   0.500 -0.0842  1.2589  1.1486
10119SOL     OW31550   6.955   0.113   7.939  0.1582  0.2962 -0.2915
10119SOL    HW131551   6.947   0.188   7.879  0.6187  0.4583 -0.1552
10119SOL    HW231552   6.869   0.071   7.936 -0.2521  1.1026 -0.0156
10120SOL     OW31553   1.462   0.368   3.830  0.1517  0.3457  0.4166
10120SOL    HW131554   1.529   0.303   3.810  0.2873  0.9850 -1.4794
10120SOL    HW231555   1.512   0.446   3.857  0.0373  0.0021  1.6453
10121SOL     OW31556   6.293   3.006   7.589 -0.0929  0.3635  0.1245
10121SOL    HW131557   6.368   3.042   7.541 -0.3407 -0.7550 -1.1699
10121SOL    HW231558   6.218   3.020   7.531 -0.9692  1.6985  1.5091
10122SOL     OW31559   0.301   1.900   8.404  0.2737  0.0171  0.2114
10122SOL    HW131560   0.364   1.853   8.458 -0.6749 -1.1393  0.3748
10122SOL    HW231561   0.267   1.969   8.460  1.6482  0.9091 -0.0074
10123SOL     OW31562   2.820   1.518   0.075 -0.0077 -0.4987 -0.2039
10123SOL    HW131563   2.774   1.435   0.087  0.7909 -0.9458 -0.1636
10123SOL    HW231564   2.891   1.516   0.138 -0.0909  0.3113 -0.0657
10124SOL     OW31565   6.290   4.619   2.785 -0.0376 -0.6105 -0.1282
10124SOL    HW131566   6.328   4.701   2.755  1.3173 -1.7859 -1.7992
10124SOL    HW231567   6.313   4.614   2.878  2.3246 -0.3981 -0.6645
10125SOL     OW31568   0.583   3.613   1.546 -0.3312  0.0766 -0.1233
10125SOL    HW131569   0.560   3.666   1.623  1.9190  0.3682  0.4070
10125SOL    HW231570   0.617   3.531   1.582 -3.3368 -1.6783 -0.9307
10126SOL     OW31571   4.922   8.106   3.925  0.0442  0.0743  0.4230
10126SOL    HW131572   4.863   8.110   4.000 -1.5262 -1.5513 -0.6577
10126SOL    HW231573   4.975   8.186   3.932 -1.8811  1.3227  1.7734
10127SOL     OW31574   2.948   6.443   1.955  1.0955  0.5045  0.1800
10127SOL    HW131575   2.974   6.421   1.866  1.1683 -0.9442  0.5365
10127SOL    HW231576   3.021   6.415   2.009 -0.0620 -1.1726  0.9416
10128SOL     OW31577   5.178   2.169   2.496 -0.3786 -0.0926  0.6499
10128SOL    HW131578   5.127   2.091   2.474  0.6024 -0.7755  0.7096
10128SOL    HW231579   5.269   2.141   2.487  0.0139  1.4815 -0.8354
10129SOL     OW31580   0.508   2.661   1.136 -0.3530 -0.1956  0.1027
10129SOL    HW131581   0.561   2.620   1.068  0.3717 -2.0381  1.6670
10129SOL    HW231582   0.440   2.709   1.089  0.0365 -1.5050 -1.9086
10130SOL     OW31583   1.279   6.608   4.698  0.1103  0.1577  0.0624
10130SOL    HW131584   1.360   6.575   4.659 -0.1713  0.8738 -1.1872
10130SOL    HW231585   1.213   6.542   4.676  0.0823  0.2552 -0.1564
10131SOL     OW31586   3.296   6.084   1.533 -0.1294 -0.3392 -0.1602
10131SOL    HW131587   3.300   6.151   1.464  0.4919  0.1432  0.3356
10131SOL    HW231588   3.210   6.044   1.522  0.8349 -1.9631 -2.7896
10132SOL     OW31589   8.275   2.703   7.865  0.4737  0.0363  0.3703
10132SOL    HW131590   8.184   2.729   7.879 -0.2906 -1.2570 -1.7579
10132SOL    HW231591   8.312   2.697   7.953 -1.5873  0.2511  1.3032
10133SOL     OW31592   4.955   8.242   1.037  0.2392  0.1643  0.1046
10133SOL    HW131593   4.988   8.330   1.019  0.4471  0.1456  0.3884
10133SOL    HW231594   4.997   8.217   1.119 -1.3552  0.5700  1.0634
10134SOL     OW31595   4.448   4.105   2.758  0.1840  0.0031 -0.0791
10134SOL    HW131596   4.370   4.058   2.789 -0.2770 -0.2669 -1.5969
10134SOL    HW231597   4.486   4.048   2.691  1.0130  0.6855 -0.2132
10135SOL     OW31598   2.576   2.896   1.719 -0.3869  0.2627  0.4970
10135SOL    HW131599   2.526   2.933   1.646  0.1413  0.3634  0.1756
10135SOL    HW231600   2.543   2.940   1.796 -0.4006  0.7414  0.2206
10136SOL     OW31601   0.671   3.883   3.965 -0.0207  0.0842  0.2009
10136SOL    HW131602   0.666   3.974   3.936 -0.9807  0.4390  1.3770
10136SOL    HW231603   0.693   3.834   3.886 -1.5947  1.0821 -0.9360
10137SOL     OW31604   5.064   3.681   3.578 -0.3863 -0.1154 -0.2106
10137SOL    HW131605   5.008   3.677   3.655 -2.2040 -0.5948 -1.4801
10137SOL    HW231606   5.117   3.601   3.583  0.1646  0.3073  0.9745
10138SOL     OW31607   3.328   6.375   2.354  0.2859  0.8640  0.3885
10138SOL    HW131608   3.273   6.299   2.337  0.4916  0.6896  0.5097
10138SOL    HW231609   3.400   6.342   2.409  0.6885  1.0185 -0.0353
10139SOL     OW31610   5.748   1.559   3.489 -0.0599 -0.1573  0.1881
10139SOL    HW131611   5.762   1.466   3.471  1.9463 -0.1057  1.2895
10139SOL    HW231612   5.831   1.601   3.468 -0.1265  1.0171  2.0575
10140SOL     OW31613   5.035   5.161   0.364 -0.0888 -0.0017  0.5420
10140SOL    HW131614   5.116   5.111   0.360  1.0642  1.7182  0.9248
10140SOL    HW231615   5.008   5.171   0.272  1.6219  1.6018  0.1473
10141SOL     OW31616   6.781   7.688   2.275 -0.0541 -0.4877 -0.0626
10141SOL    HW131617   6.840   7.659   2.344 -0.7422 -0.2921  0.6246
10141SOL    HW231618   6.728   7.611   2.255 -2.2756  0.3259  2.1679
10142SOL     OW31619   0.571   4.480   0.323 -0.5630 -0.2393 -0.2890
10142SOL    HW131620   0.485   4.520   0.311 -0.0400  0.6056 -1.4235
10142SOL    HW231621   0.570   4.403   0.267 -0.4344  0.0225 -0.6565
10143SOL     OW31622   5.239   4.175   4.546  0.2562  0.5042 -0.2026
10143SOL    HW131623   5.206   4.233   4.478  1.0755  0.0294 -1.0183
10143SOL    HW231624   5.181   4.099   4.544  0.4432  0.3682 -0.5697
10144SOL     OW31625   0.202   0.964   4.878  0.3722  0.1762 -0.3165
10144SOL    HW131626   0.249   1.046   4.894 -0.2524  0.5009 -0.0893
10144SOL    HW231627   0.112   0.983   4.906 -0.0684 -0.1810 -1.4457
10145SOL     OW31628   5.959   7.535   2.294 -0.6734 -0.0097 -0.2500
10145SOL    HW131629   5.997   7.474   2.230  0.0984  0.1278  0.0590
10145SOL    HW231630   6.032   7.554   2.353 -1.4367 -0.3296  0.8185
10146SOL     OW31631   6.021   6.743   0.261  0.2271  0.0690 -1.2600
10146SOL    HW131632   5.968   6.668   0.286 -0.9865  1.1250 -0.5683
10146SOL    HW231633   5.986   6.771   0.177  0.9198 -0.3511 -1.6952
10147SOL     OW31634   4.661   0.184   3.309 -0.0744 -0.1379 -0.0015
10147SOL    HW131635   4.620   0.241   3.374  1.1193 -0.7642  1.3621
10147SOL    HW231636   4.734   0.236   3.275 -0.6883  0.1830 -0.8625
10148SOL     OW31637   0.370   1.373   0.305  0.4050 -0.0924  0.4654
10148SOL    HW131638   0.319   1.408   0.232 -1.5709  0.9247  2.2385
10148SOL    HW231639   0.358   1.436   0.376  2.3973 -0.9467  1.6689
10149SOL     OW31640   1.440   3.923   4.492 -0.7031  0.2942 -0.6371
10149SOL    HW131641   1.431   3.957   4.403  0.3508 -0.4094 -1.0472
10149SOL    HW231642   1.431   3.999   4.549 -1.4927  0.7375 -1.3393
10150SOL     OW31643   6.039   2.691   7.928 -0.6696  0.1122 -0.3098
10150SOL    HW131644   5.982   2.636   7.981 -1.0010  1.3094  0.6207
10150SOL    HW231645   5.991   2.772   7.916  0.0676  0.4569 -1.1233
10151SOL     OW31646   0.445   8.246   5.409 -0.5889  0.6435 -0.7446
10151SOL    HW131647   0.540   8.251   5.400 -0.6220  0.4299 -1.2479
10151SOL    HW231648   0.411   8.308   5.345 -0.7771  1.6125  0.2582
10152SOL     OW31649   0.687   3.271   5.541 -0.3042 -0.3031 -0.0724
10152SOL    HW131650   0.707   3.351   5.493  0.9090 -1.3113 -1.3379
10152SOL    HW231651   0.766   3.217   5.531 -0.5724 -1.1444  1.8728
10153SOL     OW31652   4.246   0.228   1.405  0.5705  0.3591  0.3074
10153SOL    HW131653   4.170   0.179   1.374  2.2465 -0.8783 -2.2117
10153SOL    HW231654   4.220   0.320   1.398 -0.8652 -0.0505 -0.0080
10154SOL     OW31655   5.420   7.087   7.350 -0.0718  0.5348  0.6933
10154SOL    HW131656   5.346   7.048   7.396  0.2708  0.2687  1.0207
10154SOL    HW231657   5.461   7.015   7.303 -0.1436  0.7221  0.3327
10155SOL     OW31658   0.758   6.486   0.576  0.0990  0.6093 -0.4838
10155SOL    HW131659   0.773   6.487   0.482 -0.1001 -0.3549 -0.5421
10155SOL    HW231660   0.812   6.556   0.611  2.5308 -0.9037 -0.9803
10156SOL     OW31661   8.004   2.910   3.001  0.0936 -0.2383 -0.0458
10156SOL    HW131662   7.970   2.870   3.081 -0.1754  0.7342  0.3411
10156SOL    HW231663   7.933   2.965   2.970  0.7492  0.6085 -0.0827
10157SOL     OW31664   8.025   6.087   0.158 -0.3861 -0.6903  0.8224
10157SOL    HW131665   8.117   6.073   0.135 -0.4149 -1.0028  0.8934
10157SOL    HW231666   8.004   6.172   0.120 -0.7208 -1.6280 -1.2333
10158SOL     OW31667   6.942   6.032   3.362  0.8742  0.3409  0.1718
10158SOL    HW131668   6.961   6.047   3.269 -2.1597 -0.3787 -0.6691
10158SOL    HW231669   6.911   6.117   3.394 -1.1761 -0.1265 -0.4113
10159SOL     OW31670   7.686   2.622   7.794 -0.3209  0.2544 -0.3237
10159SOL    HW131671   7.748   2.551   7.776 -0.3533 -0.1240  0.9273
10159SOL    HW231672   7.636   2.631   7.714  0.3258 -0.4935 -0.8327
10160SOL     OW31673   6.440   0.859   3.195 -0.6552  0.4393 -0.1748
10160SOL    HW131674   6.404   0.796   3.258 -1.2109  0.6587 -0.2714
10160SOL    HW231675   6.365   0.887   3.144 -0.1062 -0.2690 -1.4132
10161SOL     OW31676   4.882   5.081   4.217 -0.3827  0.4920 -0.0634
10161SOL    HW131677   4.791   5.075   4.245 -0.7566  1.0145 -1.1445
10161SOL    HW231678   4.911   5.167   4.249 -0.4672  0.6070 -0.2962
10162SOL     OW31679   2.938   1.955   0.931  0.0381 -0.8281  0.3272
10162SOL    HW131680   2.935   2.018   0.859  0.4409  0.0726  1.0796
10162SOL    HW231681   3.004   1.891   0.904  0.9598  0.0878  0.3538
10163SOL     OW31682   5.275   1.516   4.385 -0.1812 -1.0249  0.6608
10163SOL    HW131683   5.330   1.534   4.461  2.2306 -2.8777 -0.5114
10163SOL    HW231684   5.217   1.445   4.413  1.1256 -2.1327  0.6466
10164SOL     OW31685   2.238   5.275   8.138  0.2515  0.6483 -0.8316
10164SOL    HW131686   2.176   5.211   8.103  0.2412  0.8548 -1.1926
10164SOL    HW231687   2.193   5.313   8.214  0.7080 -0.5797  0.0837
10165SOL     OW31688   0.328   0.953   4.048  0.6673  0.4319  0.0515
10165SOL    HW131689   0.271   0.954   4.125  0.2009 -1.2260 -0.2268
10165SOL    HW231690   0.269   0.938   3.974  0.8641  3.8331 -0.9351
10166SOL     OW31691   8.047   3.911   2.007  0.1893  0.1238 -0.4094
10166SOL    HW131692   8.039   3.954   1.923  0.2914 -1.5726 -1.3364
10166SOL    HW231693   7.966   3.861   2.017  0.1607  0.3264  0.5294
10167SOL     OW31694   2.808   7.250   8.304 -0.5803 -0.1059  0.2514
10167SOL    HW131695   2.894   7.261   8.264 -0.7638 -1.8158 -0.7086
10167SOL    HW231696   2.747   7.286   8.240 -0.6398  0.3943  0.5857
10168SOL     OW31697   5.605   4.953   7.829 -0.4641 -1.0051  0.1728
10168SOL    HW131698   5.544   4.885   7.860 -0.9356 -0.8199 -0.3502
10168SOL    HW231699   5.656   4.910   7.761 -2.7148 -0.0764 -2.2637
10169SOL     OW31700   2.606   3.848   5.647  0.8396  0.2255 -0.3936
10169SOL    HW131701   2.553   3.910   5.698  1.0744  0.7096 -0.7422
10169SOL    HW231702   2.549   3.771   5.638  0.3415  0.5946 -0.4351
10170SOL     OW31703   4.644   6.760   1.509 -0.6347  0.2596 -0.2528
10170SOL    HW131704   4.670   6.845   1.472  1.9258 -0.9977 -1.6083
10170SOL    HW231705   4.586   6.722   1.443 -0.8393  0.4672 -0.1936
10171SOL     OW31706   5.410   4.583   4.525 -0.0304  0.0393 -0.0779
10171SOL    HW131707   5.348   4.612   4.592  0.9791  1.9662  0.0997
10171SOL    HW231708   5.366   4.603   4.442 -0.3328 -0.1881  0.0245
10172SOL     OW31709   1.762   5.211   4.900 -0.0876 -0.2099  0.0766
10172SOL    HW131710   1.734   5.269   4.971 -0.2757 -0.8997  0.5751
10172SOL    HW231711   1.827   5.154   4.940 -1.7117 -1.9976  0.2723
10173SOL     OW31712   3.343   4.734   3.539 -1.0497  0.6182  0.3080
10173SOL    HW131713   3.271   4.671   3.541 -2.3256  1.9950 -0.1477
10173SOL    HW231714   3.299   4.820   3.536  0.5772  1.4584 -1.4503
10174SOL     OW31715   5.948   6.053   8.104  0.2604 -0.8796 -0.3375
10174SOL    HW131716   5.883   6.097   8.050 -0.0526  0.2421  0.8788
10174SOL    HW231717   6.030   6.097   8.082 -0.0520  0.3755  0.8751
10175SOL     OW31718   5.722   2.714   4.784  0.1275 -0.2218  0.2221
10175SOL    HW131719   5.629   2.708   4.806  0.4219  0.1530  1.7162
10175SOL    HW231720   5.739   2.808   4.781  0.2563 -0.2664 -1.0937
10176SOL     OW31721   7.312   6.617   7.462 -0.5131  0.4588 -0.8207
10176SOL    HW131722   7.314   6.548   7.529  1.2195  0.4684 -0.8121
10176SOL    HW231723   7.319   6.698   7.512 -2.1363  0.6537 -0.8596
10177SOL     OW31724   7.350   5.977   4.053 -0.1553  0.4463  0.1728
10177SOL    HW131725   7.274   5.920   4.060  0.3608 -0.2298  0.3963
10177SOL    HW231726   7.382   5.965   3.964 -0.3223  0.7597  0.0665
10178SOL     OW31727   0.273   5.360   3.271  0.7841  0.8001  0.2818
10178SOL    HW131728   0.337   5.361   3.343  1.9190 -0.0924 -0.6717
10178SOL    HW231729   0.297   5.435   3.217  1.6760 -0.1008 -0.6008
10179SOL     OW31730   7.973   3.677   1.743  0.0817 -0.1540 -0.1676
10179SOL    HW131731   7.894   3.632   1.775 -0.8512  0.2052 -1.8499
10179SOL    HW231732   7.946   3.768   1.733  0.3725 -0.2057 -1.7116
10180SOL     OW31733   2.177   6.714   0.534 -0.2664 -0.4478  0.1427
10180SOL    HW131734   2.194   6.696   0.626 -0.1166  0.5158  0.3216
10180SOL    HW231735   2.256   6.760   0.504 -0.3422 -0.6952 -0.4492
10181SOL     OW31736   8.512   4.491   4.143  0.4556  0.0707  0.1249
10181SOL    HW131737   8.539   4.458   4.058 -1.5270 -1.1016 -0.1009
10181SOL    HW231738   8.521   4.416   4.202 -1.2337 -0.0827  0.2348
10182SOL     OW31739   5.222   4.883   4.014  0.1784  0.0172  0.2387
10182SOL    HW131740   5.315   4.863   4.021  0.2512  0.0064 -0.7405
10182SOL    HW231741   5.184   4.808   3.969 -0.0192  0.7538 -0.8570
10183SOL     OW31742   6.986   4.622   5.825  0.0638 -0.1319 -0.3454
10183SOL    HW131743   6.895   4.591   5.826  0.3649 -1.0694 -0.3608
10183SOL    HW231744   7.030   4.565   5.762  0.6109  0.4627 -0.5085
10184SOL     OW31745   3.443   5.886   1.672 -0.2483  0.2382  0.5629
10184SOL    HW131746   3.370   5.847   1.719 -2.3197  3.0355 -0.0648
10184SOL    HW231747   3.406   5.964   1.630  2.8236  1.0984 -0.8553
10185SOL     OW31748   4.793   4.844   7.123  0.3751  1.0782  0.8523
10185SOL    HW131749   4.712   4.795   7.112 -0.5130  2.7647 -0.7819
10185SOL    HW231750   4.783   4.888   7.208 -0.1126  0.7376  0.9726
10186SOL     OW31751   6.072   4.278   1.298 -0.7742 -0.1282 -0.2457
10186SOL    HW131752   6.148   4.222   1.314 -1.3081 -1.0599 -0.8752
10186SOL    HW231753   6.005   4.245   1.357 -0.9019  0.2591 -0.1728
10187SOL     OW31754   3.088   7.229   5.094 -0.2591  0.1487 -0.3973
10187SOL    HW131755   3.095   7.277   5.177  3.3714  0.7382 -0.8606
10187SOL    HW231756   3.060   7.141   5.120  0.8282  0.2983  1.5159
10188SOL     OW31757   6.154   2.070   3.799 -0.6042 -0.2799  0.1731
10188SOL    HW131758   6.172   1.977   3.813 -0.4761 -0.0252  1.9051
10188SOL    HW231759   6.181   2.086   3.709 -0.7384 -1.9393 -0.1989
10189SOL     OW31760   2.666   7.458   3.234 -0.1671 -0.6138  0.2462
10189SOL    HW131761   2.684   7.517   3.307 -1.8897 -0.7669  0.8361
10189SOL    HW231762   2.661   7.371   3.274  2.7662 -1.3156 -0.6710
10190SOL     OW31763   1.394   5.674   7.614  0.8250 -0.1548  0.4678
10190SOL    HW131764   1.366   5.587   7.584  3.5512 -0.5631 -1.2203
10190SOL    HW231765   1.380   5.731   7.539 -0.2422  0.7674  1.3250
10191SOL     OW31766   8.320   6.845   1.409 -0.0145 -0.1354  0.0109
10191SOL    HW131767   8.297   6.908   1.476 -0.1666  0.3210 -0.4670
10191SOL    HW231768   8.287   6.882   1.328 -1.0605 -1.3215 -0.1517
10192SOL     OW31769   3.808   0.189   2.639  0.1518  0.3501  0.3027
10192SOL    HW131770   3.846   0.150   2.561 -0.7665 -0.5949  0.3095
10192SOL    HW231771   3.865   0.161   2.710 -0.7327 -1.4194  0.3731
10193SOL     OW31772   2.189   2.807   7.879 -0.5873 -0.2348 -0.2820
10193SOL    HW131773   2.105   2.761   7.873 -0.0755 -1.0488 -1.5045
10193SOL    HW231774   2.213   2.825   7.788  0.7793 -0.4106  0.0291
10194SOL     OW31775   7.934   1.777   3.336 -0.4827  0.2600 -0.2497
10194SOL    HW131776   7.990   1.700   3.353 -0.4418  0.5780  1.2183
10194SOL    HW231777   7.848   1.752   3.370 -0.8591  0.3355 -1.1210
10195SOL     OW31778   1.334   4.584   4.088 -0.3609 -0.0904  0.3540
10195SOL    HW131779   1.326   4.531   4.008 -0.2743  0.1957  0.1544
10195SOL    HW231780   1.261   4.555   4.143 -1.0788  0.4759 -0.2791
10196SOL     OW31781   2.348   2.475   2.344 -0.3107  0.2184  0.4979
10196SOL    HW131782   2.259   2.499   2.372 -0.3151  0.4532  0.2897
10196SOL    HW231783   2.336   2.432   2.260 -0.4761 -2.1961  1.6742
10197SOL     OW31784   0.245   1.412   8.494 -0.3812  0.0724 -0.0828
10197SOL    HW131785   0.265   1.320   8.478  0.2311 -0.1475  1.6935
10197SOL    HW231786   0.330   1.456   8.494 -0.5706  0.4510  0.1607
10198SOL     OW31787   5.737   6.808   1.656  0.3394 -0.4322 -0.0228
10198SOL    HW131788   5.746   6.713   1.642  2.9447 -0.4708  1.3588
10198SOL    HW231789   5.708   6.816   1.747  1.1477  0.1197  0.1855
10199SOL     OW31790   0.862   0.738   6.406  0.8564  0.8291 -0.6798
10199SOL    HW131791   0.808   0.719   6.329  1.2821 -0.7024 -0.6224
10199SOL    HW231792   0.946   0.765   6.369  1.0881  0.0110 -0.7733
10200SOL     OW31793   1.023   1.585   4.452 -0.2005 -0.3456  0.1256
10200SOL    HW131794   1.062   1.531   4.383 -0.0166 -0.3545  0.2334
10200SOL    HW231795   1.076   1.566   4.529  0.7587  1.0220 -0.1530
10201SOL     OW31796   0.663   3.397   5.791  0.2217  0.8354 -0.0218
10201SOL    HW131797   0.753   3.417   5.766 -0.7606  2.3716 -2.7315
10201SOL    HW231798   0.627   3.349   5.717 -1.0433 -0.3757  1.3027
10202SOL     OW31799   2.135   2.609   6.115  0.0384  0.3270  0.1772
10202SOL    HW131800   2.153   2.565   6.032  0.9275 -0.3895  0.7178
10202SOL    HW231801   2.081   2.684   6.092  0.4609  0.2713 -1.0762
10203SOL     OW31802   8.431   8.337   0.507  0.1062  0.4399  0.3427
10203SOL    HW131803   8.408   8.428   0.487  1.2195  0.2520 -2.1605
10203SOL    HW231804   8.486   8.343   0.585 -0.5718  1.8032  0.7462
10204SOL     OW31805   1.757   8.138   7.529 -0.2563 -0.2605  0.2766
10204SOL    HW131806   1.722   8.226   7.546  0.1981 -0.3247  1.6084
10204SOL    HW231807   1.813   8.119   7.604  0.8781 -1.0745 -0.7384
10205SOL     OW31808   6.252   8.260   2.229  0.8398  0.1198  0.1762
10205SOL    HW131809   6.189   8.328   2.254  1.3415  0.6278  0.0626
10205SOL    HW231810   6.336   8.293   2.258  0.7763 -1.8119  2.9292
10206SOL     OW31811   2.776   5.571   8.604 -0.1225  0.4737  0.0312
10206SOL    HW131812   2.727   5.490   8.588 -0.3253  0.2641  1.5227
10206SOL    HW231813   2.742   5.633   8.539  0.8379 -0.9132 -1.8899
10207SOL     OW31814   7.889   3.957   1.793  0.1235  0.3752  0.6712
10207SOL    HW131815   7.822   4.014   1.832 -1.4240 -1.4241  0.8106
10207SOL    HW231816   7.906   3.995   1.707  0.3376  1.9230  1.3679
10208SOL     OW31817   2.680   6.995   8.432  0.1578  0.0650  0.5313
10208SOL    HW131818   2.690   7.064   8.367 -1.6031  1.2414  1.4067
10208SOL    HW231819   2.763   6.994   8.479  0.3892  1.2792  0.1889
10209SOL     OW31820   2.423   4.131   4.803  0.1831  0.0749  0.4190
10209SOL    HW131821   2.493   4.164   4.745  0.6756 -2.2362 -0.4029
10209SOL    HW231822   2.366   4.207   4.816  2.0447  1.6534 -0.0876
10210SOL     OW31823   5.970   1.651   7.288  0.1899  0.4556 -0.1989
10210SOL    HW131824   6.035   1.715   7.258 -0.0632 -0.0347 -1.8992
10210SOL    HW231825   5.986   1.574   7.233 -0.1907 -0.5857  1.1001
10211SOL     OW31826   7.969   0.196   4.967  0.5272  0.2528  0.5574
10211SOL    HW131827   7.906   0.131   4.998  2.3506 -1.6031  0.5953
10211SOL    HW231828   7.916   0.261   4.920 -1.3546 -1.4520  0.2029
10212SOL     OW31829   5.015   2.280   7.503 -0.2900 -0.1470  0.3495
10212SOL    HW131830   5.014   2.361   7.554  1.2482  0.5569 -0.6753
10212SOL    HW231831   5.085   2.228   7.541 -0.4378 -0.4629  0.1969
10213SOL     OW31832   2.874   1.736   0.498  0.3702 -0.4173  1.2294
10213SOL    HW131833   2.968   1.748   0.484  0.8410 -1.1935  3.3925
10213SOL    HW231834   2.840   1.707   0.413  1.8778  0.8368  0.1418
10214SOL     OW31835   4.691   1.108   7.301 -0.3467 -0.7085 -0.6024
10214SOL    HW131836   4.700   1.180   7.238 -2.2870 -0.2767 -0.4326
10214SOL    HW231837   4.695   1.152   7.387  2.2678 -1.2885 -0.3384
10215SOL     OW31838   8.115   0.779   3.361 -0.3188 -0.2251 -0.5316
10215SOL    HW131839   8.068   0.697   3.351 -0.0657 -0.5093  0.4559
10215SOL    HW231840   8.101   0.826   3.279 -0.9456 -1.0062 -0.8774
10216SOL     OW31841   1.674   4.579   1.842 -0.1216 -0.1353  0.4160
10216SOL    HW131842   1.749   4.603   1.788  0.8104 -0.3488  1.5799
10216SOL    HW231843   1.699   4.497   1.885 -2.1450 -1.7762 -1.3020
10217SOL     OW31844   1.292   2.189   4.201  0.1280  0.5222  0.2054
10217SOL    HW131845   1.243   2.195   4.120  0.1217 -2.3355 -0.1164
10217SOL    HW231846   1.235   2.229   4.267 -0.4871  1.5716 -0.9270
10218SOL     OW31847   0.114   6.562   4.643 -0.3823  0.0460 -0.0758
10218SOL    HW131848   0.204   6.580   4.671 -0.3993 -0.0254  0.0252
10218SOL    HW231849   0.066   6.548   4.725 -1.2743  3.5384  0.1738
10219SOL     OW31850   4.044   1.992   5.232  0.4558 -0.8953 -0.5674
10219SOL    HW131851   3.995   1.916   5.266  0.5532 -0.2554  1.0951
10219SOL    HW231852   4.118   1.953   5.185  0.5702 -1.8646  0.3522
10220SOL     OW31853   0.496   5.294   7.524  0.4581  0.2889 -0.1968
10220SOL    HW131854   0.536   5.375   7.557  0.0766  0.6677 -0.6319
10220SOL    HW231855   0.569   5.233   7.514  0.7778  0.6432 -0.0334
10221SOL     OW31856   6.098   3.332   4.888 -0.3224  0.1221  0.1676
10221SOL    HW131857   6.010   3.296   4.893  1.0395 -3.6908  0.1468
10221SOL    HW231858   6.120   3.354   4.979 -0.7391 -0.4797  0.4232
10222SOL     OW31859   7.202   1.534   3.951 -0.0982  0.0075 -0.0442
10222SOL    HW131860   7.194   1.460   3.890 -0.4718 -0.5049  0.6176
10222SOL    HW231861   7.127   1.590   3.929 -0.2674 -0.2055 -0.0140
10223SOL     OW31862   6.650   4.672   5.317  0.0082 -0.0875 -0.4646
10223SOL    HW131863   6.667   4.606   5.383  0.6781 -2.4717 -2.8442
10223SOL    HW231864   6.730   4.724   5.313  0.2717 -0.4611 -0.0292
10224SOL     OW31865   3.397   0.009   5.433 -0.5216  0.5757 -1.0417
10224SOL    HW131866   3.453   0.050   5.499 -1.7430 -0.7259  0.8875
10224SOL    HW231867   3.319  -0.018   5.481 -1.8121  0.2396 -3.1907
10225SOL     OW31868   1.998   7.529   2.491 -0.2880 -0.2982  0.9956
10225SOL    HW131869   1.973   7.616   2.461 -0.8674 -0.6794  0.3227
10225SOL    HW231870   2.071   7.504   2.435  0.6944  0.2352  2.0059
10226SOL     OW31871   7.558   4.510   7.082 -0.5765  0.1260 -0.6735
10226SOL    HW131872   7.517   4.592   7.057 -2.0000 -1.2316 -3.2773
10226SOL    HW231873   7.515   4.444   7.027  1.8384 -2.1015 -0.1181
10227SOL     OW31874   0.322   8.195   8.339 -0.8835  0.3816  0.0033
10227SOL    HW131875   0.260   8.169   8.271 -0.1252  0.9283 -0.9181
10227SOL    HW231876   0.277   8.268   8.384 -2.0216 -0.9431  1.1025
10228SOL     OW31877   3.439   8.108   2.150 -0.2131  0.1157  0.6396
10228SOL    HW131878   3.451   8.109   2.245  0.7249  0.5879  0.5233
10228SOL    HW231879   3.363   8.164   2.134  0.5022  1.2045  1.0014
10229SOL     OW31880   0.828   7.011   6.955 -0.7047 -0.4767  0.3020
10229SOL    HW131881   0.814   7.080   6.891 -2.2533 -0.2572  0.8285
10229SOL    HW231882   0.863   6.937   6.905 -1.6145 -0.2085 -0.7429
10230SOL     OW31883   2.666   0.234   4.396  0.4414 -0.0983  0.4023
10230SOL    HW131884   2.683   0.170   4.464  0.0915 -0.4585  0.1566
10230SOL    HW231885   2.597   0.290   4.432  1.2182  0.5624  0.8841
10231SOL     OW31886   0.131   8.041   0.932 -0.3267  0.4498 -0.3811
10231SOL    HW131887   0.166   8.091   1.005 -0.9686  1.8341 -0.9841
10231SOL    HW231888   0.036   8.038   0.947 -0.1710 -2.3084  0.6624
10232SOL     OW31889   3.767   7.893   0.919  0.4229 -0.3713 -0.0480
10232SOL    HW131890   3.840   7.955   0.918  1.7583 -1.8927 -0.9319
10232SOL    HW231891   3.774   7.845   0.837 -1.5739 -0.6048 -0.1396
10233SOL     OW31892   2.887   3.233   2.810 -0.0281  0.1616 -0.7669
10233SOL    HW131893   2.819   3.297   2.789 -1.3220 -1.0160 -0.3106
10233SOL    HW231894   2.958   3.285   2.848 -1.0095  1.3369 -0.4740
10234SOL     OW31895   0.418   8.359   5.899 -0.1837 -0.6742  0.4291
10234SOL    HW131896   0.510   8.382   5.887 -1.1074  2.9158 -1.4392
10234SOL    HW231897   0.390   8.326   5.814 -1.4263  2.3454 -0.5004
10235SOL     OW31898   5.833   6.982   8.198 -0.0678  0.6616 -0.3026
10235SOL    HW131899   5.835   7.073   8.225 -0.1716  0.1978  1.3836
10235SOL    HW231900   5.753   6.947   8.236 -0.5208  0.0797 -1.7294
10236SOL     OW31901   5.984   6.470   3.123  0.1447 -1.0420 -0.8241
10236SOL    HW131902   6.000   6.557   3.085  1.8153 -1.2221 -0.6019
10236SOL    HW231903   6.050   6.461   3.191 -0.5865 -2.1406 -0.2339
10237SOL     OW31904   0.068   7.637   4.682 -0.0193 -0.1166  0.0309
10237SOL    HW131905   0.101   7.639   4.772  0.5819 -1.6440 -0.1258
10237SOL    HW231906   0.146   7.642   4.628 -0.4508  2.1313 -0.4703
10238SOL     OW31907   5.240   8.270   3.962 -0.0197  0.2837  0.3723
10238SOL    HW131908   5.257   8.354   3.920 -0.3000  0.0299 -0.2607
10238SOL    HW231909   5.257   8.204   3.895  1.9790 -0.3073  1.3745
10239SOL     OW31910   0.839   2.309   1.714  0.4716  0.1301 -0.1328
10239SOL    HW131911   0.882   2.230   1.680 -2.2677 -1.0024 -1.3356
10239SOL    HW231912   0.755   2.277   1.748 -1.4864  2.6458 -2.1546
10240SOL     OW31913   4.320   3.446   6.407  0.1696  0.3288  0.5448
10240SOL    HW131914   4.346   3.475   6.494  0.7088  1.2494  0.0943
10240SOL    HW231915   4.325   3.525   6.353 -1.8720  0.1519  0.0442
10241SOL     OW31916   0.981   2.401   5.712 -0.5486  0.0190  0.4081
10241SOL    HW131917   1.055   2.355   5.752 -0.4122 -0.0731  0.0586
10241SOL    HW231918   0.985   2.376   5.619 -1.9586 -1.2657  0.6577
10242SOL     OW31919   2.969   8.230   1.421  0.0016  0.1896 -0.0511
10242SOL    HW131920   2.984   8.321   1.397 -0.1537  0.9798  2.5001
10242SOL    HW231921   2.907   8.197   1.356  1.0509  1.4836 -1.7768
10243SOL     OW31922   7.969   2.577   4.293 -0.0464 -0.7727 -0.5497
10243SOL    HW131923   7.977   2.495   4.244  0.6265 -2.6251  2.4179
10243SOL    HW231924   7.882   2.574   4.332  0.7976 -1.3046  1.4449
10244SOL     OW31925   1.428   0.370   3.019 -0.3322  0.7364  0.3361
10244SOL    HW131926   1.359   0.391   2.955 -1.4565  0.2653  1.3525
10244SOL    HW231927   1.382   0.322   3.088  0.7476  1.6787  1.7587
10245SOL     OW31928   0.616   0.393   5.676 -0.1560 -0.2294 -0.4777
10245SOL    HW131929   0.521   0.391   5.666 -0.1477 -1.8943 -0.5002
10245SOL    HW231930   0.635   0.320   5.735  1.0672  0.3947 -0.0861
10246SOL     OW31931   6.087   4.512   5.161  0.3598 -0.0235 -0.5294
10246SOL    HW131932   6.117   4.487   5.073  2.6372  1.1301 -0.1608
10246SOL    HW231933   6.149   4.579   5.189 -2.8931  2.9560  0.2224
10247SOL     OW31934   0.839   4.822   8.290  0.3127 -0.6965  0.4336
10247SOL    HW131935   0.910   4.777   8.335 -0.8714 -2.3560  0.7343
10247SOL    HW231936   0.761   4.771   8.310 -0.5752 -0.4523 -2.0163
10248SOL     OW31937   0.903   3.884   0.842  0.7384  0.1497 -0.0409
10248SOL    HW131938   0.905   3.977   0.821 -0.6050  0.6079  1.6328
10248SOL    HW231939   0.924   3.879   0.935  0.7110 -1.2173 -0.0767
10249SOL     OW31940   3.801   2.713   7.773  0.2412  0.1561 -0.4872
10249SOL    HW131941   3.724   2.722   7.828  0.6307  0.0938  0.0705
10249SOL    HW231942   3.867   2.671   7.828  0.3108 -0.8675 -1.3108
10250SOL     OW31943   6.245   5.395   5.405 -0.0612  0.0140 -0.3394
10250SOL    HW131944   6.336   5.367   5.419 -0.1012 -0.0215 -0.1419
10250SOL    HW231945   6.250   5.459   5.334  0.3961  1.5276  0.9846
10251SOL     OW31946   2.621   0.246   5.794 -0.5858 -0.3524  0.5790
10251SOL    HW131947   2.611   0.151   5.797  0.5782 -0.5881 -1.2092
10251SOL    HW231948   2.674   0.268   5.870  2.3191 -1.6833 -0.9080
10252SOL     OW31949   7.768   3.899   5.557  0.0981 -0.1708  0.3082
10252SOL    HW131950   7.692   3.905   5.499 -0.7458 -0.5892  1.3285
10252SOL    HW231951   7.788   3.806   5.562 -0.3871 -0.2416  1.3287
10253SOL     OW31952   2.741   8.184   1.271  0.0691 -0.0624  0.5754
10253SOL    HW131953   2.720   8.256   1.212 -1.4322 -1.0874 -0.2120
10253SOL    HW231954   2.706   8.210   1.356 -1.8621 -0.4751 -0.0566
10254SOL     OW31955   0.628   5.532   1.616  0.2198  0.0544  0.0155
10254SOL    HW131956   0.587   5.619   1.613 -0.7756 -0.4341 -0.9259
10254SOL    HW231957   0.554   5.471   1.613  0.9816 -0.8393 -1.0548
10255SOL     OW31958   4.803   1.362   5.189  0.8718  0.5412 -0.0732
10255SOL    HW131959   4.838   1.379   5.101 -0.7721  0.3330 -0.8101
10255SOL    HW231960   4.738   1.431   5.201  0.4340  0.0127  0.6012
10256SOL     OW31961   5.368   2.812   4.123 -0.6761 -0.8127  0.0107
10256SOL    HW131962   5.276   2.837   4.113 -0.6781 -0.9604 -0.3417
10256SOL    HW231963   5.404   2.818   4.035 -0.4156 -1.0305  0.1013
10257SOL     OW31964   2.430   1.193   2.360  0.7742 -0.4448  0.5093
10257SOL    HW131965   2.421   1.282   2.394  1.3241 -0.5955  1.0809
10257SOL    HW231966   2.347   1.150   2.380  0.3599  0.0467 -0.1166
10258SOL     OW31967   7.694   5.196   1.522  0.5821  0.1118  0.1059
10258SOL    HW131968   7.714   5.250   1.598 -0.5695  0.4155  0.2022
10258SOL    HW231969   7.622   5.139   1.550 -1.3134  1.6668 -1.3416
10259SOL     OW31970   5.262   7.346   0.964 -0.0250  0.4537  0.3778
10259SOL    HW131971   5.330   7.284   0.938 -0.3113  0.3774 -0.2079
10259SOL    HW231972   5.282   7.425   0.915 -0.6359  0.2735 -0.1755
10260SOL     OW31973   1.496   8.224   8.478 -0.2475  0.0258  0.3093
10260SOL    HW131974   1.401   8.222   8.473 -0.2184  0.8225 -0.6638
10260SOL    HW231975   1.516   8.189   8.565 -1.4039 -0.5462  0.3565
10261SOL     OW31976   4.488   5.252   7.976  0.2775  0.8990 -0.0476
10261SOL    HW131977   4.516   5.188   8.041  0.6704  1.6431  0.5453
10261SOL    HW231978   4.410   5.214   7.936 -0.5128  0.8116  1.4887
10262SOL     OW31979   5.599   7.260   6.755 -0.4415 -0.5177  0.1975
10262SOL    HW131980   5.584   7.182   6.807 -1.2230 -1.0708 -0.8192
10262SOL    HW231981   5.533   7.323   6.785  0.6820  0.0685  1.5592
10263SOL     OW31982   5.109   1.313   1.295 -0.0326  0.3625  0.6643
10263SOL    HW131983   5.043   1.301   1.364 -1.1379 -0.4126 -0.4886
10263SOL    HW231984   5.129   1.224   1.266 -1.4764  0.7311 -1.7314
10264SOL     OW31985   0.068   3.365   1.968  0.0978  0.0657 -0.2165
10264SOL    HW131986   0.072   3.275   1.933  1.3809  0.0447 -0.0598
10264SOL    HW231987   0.040   3.418   1.893  0.2124 -0.3479 -0.5601
10265SOL     OW31988   5.268   3.119   5.050  0.0060  0.1253 -0.0946
10265SOL    HW131989   5.194   3.156   5.099 -1.4474 -1.1828 -1.2050
10265SOL    HW231990   5.261   3.025   5.064  0.5014 -0.1421 -1.5011
10266SOL     OW31991   6.381   3.451   1.226 -0.3586  0.7372  0.0728
10266SOL    HW131992   6.431   3.452   1.144  1.5542  0.8861  1.1788
10266SOL    HW231993   6.323   3.375   1.217 -0.9000  1.3027 -1.7755
10267SOL     OW31994   0.846   4.863   4.179  0.4938  0.4458 -0.3264
10267SOL    HW131995   0.802   4.805   4.117 -0.6355 -2.6748  3.0003
10267SOL    HW231996   0.939   4.854   4.158  0.0809  2.0172 -3.3866
10268SOL     OW31997   6.915   1.601   4.100 -0.0257  0.0297  0.4548
10268SOL    HW131998   6.924   1.563   4.187  0.5281  1.7885  1.2016
10268SOL    HW231999   6.838   1.558   4.063  0.7010 -1.9604  1.1368
10269SOL     OW32000   0.797   2.483   6.039 -0.9452 -0.5878  0.7646
10269SOL    HW132001   0.828   2.545   6.106 -0.9313 -0.1239  0.3305
10269SOL    HW232002   0.866   2.482   5.974 -0.6263 -1.5940  1.1008
10270SOL     OW32003   5.256   5.498   8.054 -0.1388 -0.7395 -0.3025
10270SOL    HW132004   5.305   5.467   7.978 -0.8043 -0.8566 -0.6968
10270SOL    HW232005   5.248   5.422   8.111  1.9491 -0.2212  0.7893
10271SOL     OW32006   2.027   0.764   5.024 -0.3719 -0.2257 -0.2410
10271SOL    HW132007   1.977   0.713   5.087 -1.7528  0.7643 -0.4742
10271SOL    HW232008   2.118   0.741   5.040 -0.4541  1.3056  3.3485
10272SOL     OW32009   1.107   5.245   4.085 -0.2672  0.4675  0.2898
10272SOL    HW132010   1.134   5.294   4.163  0.4624 -0.7931  0.8609
10272SOL    HW232011   1.167   5.170   4.082 -1.0344 -0.1244 -0.8307
10273SOL     OW32012   7.597   7.389   7.046  0.0946 -0.0878  0.0826
10273SOL    HW132013   7.502   7.403   7.050 -0.1628 -1.8579  1.9707
10273SOL    HW232014   7.607   7.297   7.021  1.1080 -1.1018  3.6237
10274SOL     OW32015   1.620   3.952   0.369 -0.1947  0.2901 -0.2562
10274SOL    HW132016   1.614   3.912   0.456  0.1333 -0.2006 -0.4590
10274SOL    HW232017   1.560   3.901   0.315 -0.0211  0.2807 -0.4381
10275SOL     OW32018   5.134   6.782   2.368  0.0593  0.4214  0.2077
10275SOL    HW132019   5.086   6.812   2.445  0.7653 -0.4672  1.0285
10275SOL    HW232020   5.195   6.854   2.348  0.1694  0.4817  0.7477
10276SOL     OW32021   1.391   5.892   1.926  0.2363  0.7665 -0.0787
10276SOL    HW132022   1.435   5.954   1.984  0.7595 -0.6226  1.0493
10276SOL    HW232023   1.306   5.933   1.909 -0.0094  1.1555  1.8147
10277SOL     OW32024   0.531   2.737   6.645  0.1850  0.3171  0.2633
10277SOL    HW132025   0.486   2.655   6.624  0.8016 -0.2920  1.1960
10277SOL    HW232026   0.624   2.714   6.643  0.3297  0.7028  1.6392
10278SOL     OW32027   4.952   3.266   7.231  0.1974  0.2220 -0.2740
10278SOL    HW132028   4.928   3.236   7.319  2.8890 -2.0087 -0.1776
10278SOL    HW232029   4.877   3.242   7.176 -1.2694  1.1046  1.2224
10279SOL     OW32030   7.205   0.720   2.489 -0.3187 -0.3141 -0.1443
10279SOL    HW132031   7.112   0.742   2.494 -0.6338 -1.7900  1.4086
10279SOL    HW232032   7.207   0.625   2.481  1.0618 -0.3368  0.2242
10280SOL     OW32033   6.087   3.265   0.703 -0.0660 -0.7843  0.2341
10280SOL    HW132034   6.120   3.175   0.696  2.0141 -0.0866  0.3641
10280SOL    HW232035   6.166   3.319   0.703 -1.3078  1.1485 -1.1319
10281SOL     OW32036   4.361   7.143   3.646  0.0793  0.2830 -0.4783
10281SOL    HW132037   4.387   7.133   3.737  1.2409 -0.7804 -0.8912
10281SOL    HW232038   4.444   7.159   3.600 -0.4911  0.7994 -1.3428
10282SOL     OW32039   0.855   4.884   5.230 -0.2810  0.2891  0.3334
10282SOL    HW132040   0.768   4.853   5.255 -0.3935  0.6690  0.4168
10282SOL    HW232041   0.870   4.845   5.144  1.3577 -3.5559  2.1045
10283SOL     OW32042   5.057   3.038   6.947 -0.0946  0.2744  0.2710
10283SOL    HW132043   5.092   3.030   6.858 -1.5564 -0.0159 -0.2952
10283SOL    HW232044   5.069   3.130   6.969 -1.5604  0.8229 -1.0361
10284SOL     OW32045   8.436   1.745   5.643  0.0038 -0.0634  0.2596
10284SOL    HW132046   8.458   1.655   5.667  0.2040 -0.2496 -0.5901
10284SOL    HW232047   8.351   1.739   5.598 -0.2672  0.2498  0.7194
10285SOL     OW32048   7.533   4.843   2.884  0.2740  0.8907  0.0694
10285SOL    HW132049   7.611   4.792   2.906  0.0302  0.5112  0.0494
10285SOL    HW232050   7.544   4.865   2.791  0.1977  0.5609 -0.0169
10286SOL     OW32051   5.082   1.476   8.247 -0.6891 -0.3118 -0.7612
10286SOL    HW132052   4.994   1.461   8.281 -0.0710 -1.2336  0.4949
10286SOL    HW232053   5.112   1.390   8.218  0.3977 -0.3366  0.3597
10287SOL     OW32054   6.174   2.566   5.914  0.0518 -0.1247 -0.0052
10287SOL    HW132055   6.116   2.598   5.845 -0.5047 -0.7026  0.1946
10287SOL    HW232056   6.154   2.621   5.990 -0.7735 -0.8077  0.2837
10288SOL     OW32057   2.483   2.299   8.260  0.6872 -0.9142  0.4166
10288SOL    HW132058   2.462   2.386   8.225  1.1264 -0.2585  1.7536
10288SOL    HW232059   2.459   2.239   8.189 -1.5982  0.1206  0.2226
10289SOL     OW32060   6.826   2.353   3.064 -0.8349  0.4443  0.0177
10289SOL    HW132061   6.754   2.290   3.070  1.1105 -1.9559  0.0565
10289SOL    HW232062   6.848   2.373   3.155 -0.3063 -0.2898  0.0621
10290SOL     OW32063   4.638   7.408   7.366  0.0826 -0.1353  0.2908
10290SOL    HW132064   4.637   7.371   7.455  0.0938 -0.7983  0.0181
10290SOL    HW232065   4.605   7.338   7.310  4.0520 -1.3746 -0.8301
10291SOL     OW32066   8.202   8.472   1.396 -0.0008 -0.0790 -0.2065
10291SOL    HW132067   8.176   8.531   1.467 -0.3464 -1.5414  0.9120
10291SOL    HW232068   8.269   8.416   1.434 -0.3145 -1.0071 -0.9712
10292SOL     OW32069   7.273   0.303   2.688 -0.3407 -0.6393 -0.4584
10292SOL    HW132070   7.218   0.381   2.699  0.6737 -0.0871  1.1270
10292SOL    HW232071   7.213   0.229   2.696 -1.4586 -0.0730 -2.8303
10293SOL     OW32072   6.092   3.165   4.275 -0.0745 -0.1160  0.5229
10293SOL    HW132073   6.007   3.141   4.313 -0.8953 -0.0680 -1.1841
10293SOL    HW232074   6.092   3.261   4.275  0.1688 -0.1130  0.8904
10294SOL     OW32075   6.055   7.690   3.413  0.5954 -0.0210 -0.4855
10294SOL    HW132076   6.085   7.773   3.450 -1.2904  1.5123 -2.1423
10294SOL    HW232077   6.015   7.644   3.486  0.3720  1.2072  0.2001
10295SOL     OW32078   5.857   1.045   6.847  0.5925  0.4736 -0.3744
10295SOL    HW132079   5.891   1.065   6.760  0.1405  0.5963 -0.5255
10295SOL    HW232080   5.781   0.990   6.830  1.0748 -0.3179 -0.0147
10296SOL     OW32081   1.238   2.677   6.367  0.5394 -0.2882  0.0440
10296SOL    HW132082   1.226   2.603   6.427  0.0040 -0.1432  0.1244
10296SOL    HW232083   1.150   2.712   6.354  0.6235 -0.4092 -0.9508
10297SOL     OW32084   8.384   4.233   3.018  0.0898  0.2463  0.3412
10297SOL    HW132085   8.313   4.291   3.045 -0.3156 -0.9753  2.1117
10297SOL    HW232086   8.463   4.273   3.053  0.4070  1.8305 -1.9913
10298SOL     OW32087   6.509   3.162   0.329  0.0441  0.0324 -0.3321
10298SOL    HW132088   6.496   3.225   0.400 -2.4729  0.1660 -0.8231
10298SOL    HW232089   6.567   3.206   0.267 -1.4924  1.8419 -0.5601
10299SOL     OW32090   6.596   3.549   8.592 -0.1515 -0.0014 -0.4115
10299SOL    HW132091   6.607   3.592   8.677 -0.9297  2.4627 -1.4451
10299SOL    HW232092   6.501   3.545   8.580 -0.0637 -0.9617 -0.8870
10300SOL     OW32093   4.208   1.521   3.651 -0.4214  0.2623 -0.5440
10300SOL    HW132094   4.271   1.527   3.579 -1.5449 -1.4147 -1.7353
10300SOL    HW232095   4.182   1.429   3.653 -0.1618  0.1747  2.2853
10301SOL     OW32096   1.193   0.577   3.304  0.0471 -0.2557  0.3337
10301SOL    HW132097   1.236   0.495   3.326  2.1125 -0.3070 -3.1477
10301SOL    HW232098   1.263   0.643   3.306 -0.7821  0.6904 -0.4591
10302SOL     OW32099   6.712   1.158   7.130  0.5751  0.3032  0.4160
10302SOL    HW132100   6.644   1.096   7.104  0.4817  0.4513  0.3076
10302SOL    HW232101   6.675   1.205   7.204 -0.4344  2.1074 -1.1575
10303SOL     OW32102   3.541   1.599   2.988  0.9733  0.2725 -0.1031
10303SOL    HW132103   3.580   1.511   2.985 -0.4888 -0.3850 -1.8409
10303SOL    HW232104   3.495   1.607   2.905  0.5275  2.4630  0.3011
10304SOL     OW32105   1.481   0.267   4.230  0.5439 -0.1643 -0.2218
10304SOL    HW132106   1.532   0.340   4.266  1.1090 -0.0822 -1.1473
10304SOL    HW232107   1.424   0.240   4.301  0.0171  1.4689  0.0038
10305SOL     OW32108   2.476   2.511   5.647  0.1949  0.0716  0.2568
10305SOL    HW132109   2.428   2.589   5.622  0.8395  1.6554  3.3900
10305SOL    HW232110   2.567   2.529   5.624  0.2647  0.0260  0.4877
10306SOL     OW32111   0.194   6.724   0.604 -0.4094  0.4328 -0.6752
10306SOL    HW132112   0.190   6.808   0.558 -0.6931  0.1741 -1.1227
10306SOL    HW232113   0.254   6.671   0.552  1.2781  0.9651  0.6198
10307SOL     OW32114   2.987   4.147   1.919 -0.9138 -0.2160  0.1252
10307SOL    HW132115   2.992   4.132   1.824 -0.4123  0.9751 -0.0588
10307SOL    HW232116   3.061   4.098   1.955 -1.0313 -0.5721 -0.1052
10308SOL     OW32117   6.844   4.651   2.131 -0.0797 -0.2251  0.0325
10308SOL    HW132118   6.761   4.685   2.098  0.3082 -0.0557 -0.8038
10308SOL    HW232119   6.881   4.603   2.057  0.9231  0.3441  0.1394
10309SOL     OW32120   0.110   7.170   6.293 -0.8563  0.2958  0.1157
10309SOL    HW132121   0.080   7.189   6.204 -0.3233 -0.2935 -0.2041
10309SOL    HW232122   0.107   7.074   6.299 -0.4848  0.3084  0.5865
10310SOL     OW32123   6.274   3.262   0.054  0.0190  0.4966 -1.0320
10310SOL    HW132124   6.328   3.185   0.071 -1.0316  0.4948  3.4749
10310SOL    HW232125   6.197   3.228   0.008  0.7717 -0.6377 -1.5095
10311SOL     OW32126   3.392   6.803   5.260 -0.2746 -0.4963  0.0114
10311SOL    HW132127   3.416   6.844   5.343 -0.8475 -1.2404  0.5684
10311SOL    HW232128   3.475   6.776   5.221  0.0851  0.9457 -0.2516
10312SOL     OW32129   6.270   3.092   4.493 -0.0705 -0.6459 -0.3203
10312SOL    HW132130   6.237   3.141   4.417  1.9884 -0.4064 -1.1194
10312SOL    HW232131   6.241   3.002   4.477 -1.1793 -0.2768 -0.4618
10313SOL     OW32132   3.762   0.109   0.130  0.6113  0.2780  1.1888
10313SOL    HW132133   3.697   0.164   0.175 -2.2303 -1.5623 -0.3646
10313SOL    HW232134   3.714   0.030   0.106  3.4242 -1.1240 -0.3123
10314SOL     OW32135   7.113   3.275   3.448 -0.0192  0.0926 -0.8574
10314SOL    HW132136   7.051   3.212   3.411 -0.4446 -0.8106  1.2106
10314SOL    HW232137   7.064   3.319   3.517  1.2008  0.3987 -0.1519
10315SOL     OW32138   1.406   7.193   1.833  0.4470 -0.0313 -0.6395
10315SOL    HW132139   1.476   7.255   1.851  0.1437  0.4444 -1.0550
10315SOL    HW232140   1.394   7.197   1.738  1.3939 -1.7986 -0.8595
10316SOL     OW32141   6.807   6.331   2.202  0.4018 -0.3167 -0.0895
10316SOL    HW132142   6.876   6.346   2.138  1.0202  0.3436  0.7099
10316SOL    HW232143   6.760   6.414   2.206 -0.4414 -0.7511 -0.6054
10317SOL     OW32144   0.237   0.450   7.670  0.1774  0.1449  0.2498
10317SOL    HW132145   0.230   0.445   7.766  1.5540  0.2087  0.3740
10317SOL    HW232146   0.290   0.375   7.646 -0.7774 -0.2844 -0.5593
10318SOL     OW32147   7.740   6.149   8.027 -0.1703  0.2525  0.2238
10318SOL    HW132148   7.830   6.120   8.041  0.2041  0.1657 -1.9118
10318SOL    HW232149   7.702   6.082   7.970 -0.9048  1.3226 -0.6034
10319SOL     OW32150   0.176   1.296   5.846 -0.0073  0.0932  0.4185
10319SOL    HW132151   0.195   1.257   5.931 -0.7661  0.0951  0.5990
10319SOL    HW232152   0.149   1.222   5.791  1.5637 -0.0774 -0.1674
10320SOL     OW32153   1.132   2.899   7.850  0.0224  0.0204 -0.0478
10320SOL    HW132154   1.042   2.912   7.821  0.5185  0.9049 -1.2843
10320SOL    HW232155   1.150   2.974   7.906  0.4759  0.7227 -1.0971
10321SOL     OW32156   6.257   8.143   6.220 -0.0889  0.1671  0.3599
10321SOL    HW132157   6.283   8.235   6.217  0.6673  0.1006  2.9560
10321SOL    HW232158   6.335   8.096   6.246 -0.3346 -1.3462 -1.4006
10322SOL     OW32159   4.786   2.847   6.767  0.2543 -0.2391  0.0808
10322SOL    HW132160   4.748   2.805   6.689  1.4490 -1.9070  0.3448
10322SOL    HW232161   4.757   2.792   6.840  1.5777 -0.4316  0.4826
10323SOL     OW32162   7.094   0.800   0.906 -0.5966  0.7011 -0.0383
10323SOL    HW132163   7.180   0.825   0.873 -1.0199  0.7969 -1.0933
10323SOL    HW232164   7.070   0.723   0.855 -0.8745  0.2952  0.6849
10324SOL     OW32165   4.658   2.567   2.359 -0.2284 -0.2033  0.2006
10324SOL    HW132166   4.704   2.609   2.286 -0.0842  1.3650  1.1290
10324SOL    HW232167   4.617   2.640   2.406  0.0314 -1.1065  1.9238
10325SOL     OW32168   8.123   5.989   3.138  0.2200  0.2448  0.1251
10325SOL    HW132169   8.186   6.025   3.200  0.9499  0.7839 -0.9071
10325SOL    HW232170   8.087   6.065   3.092  1.8271 -0.2413 -2.1253
10326SOL     OW32171   7.989   5.490   4.712 -0.6650 -0.4017 -0.1048
10326SOL    HW132172   8.033   5.499   4.628 -2.2847 -0.0023 -0.9327
10326SOL    HW232173   8.060   5.497   4.776  0.6182 -0.8597 -1.4084
10327SOL     OW32174   5.223   6.312   5.983  0.7035 -0.6598  0.6380
10327SOL    HW132175   5.167   6.263   6.043  0.9259 -0.2726  1.1758
10327SOL    HW232176   5.214   6.267   5.899 -0.5376 -0.5002  0.6696
10328SOL     OW32177   4.124   3.670   7.310  0.2545 -0.1029 -0.5401
10328SOL    HW132178   4.096   3.593   7.359  1.3179 -0.5594 -0.6305
10328SOL    HW232179   4.218   3.677   7.327  0.2958  0.7941 -1.0592
10329SOL     OW32180   6.917   5.882   4.008  0.0150  0.0800 -0.3312
10329SOL    HW132181   7.007   5.851   4.014  0.8359  2.4277  0.5390
10329SOL    HW232182   6.896   5.913   4.096 -1.4737  0.0200 -0.6426
10330SOL     OW32183   8.004   6.845   6.710 -0.0016 -0.5382  0.0025
10330SOL    HW132184   8.017   6.777   6.776  0.0694 -0.6347 -0.1116
10330SOL    HW232185   8.080   6.838   6.652 -0.0679 -0.4594 -0.0942
10331SOL     OW32186   8.246   5.451   1.089  0.1565  0.9028  0.2237
10331SOL    HW132187   8.244   5.371   1.037 -1.9099  0.1720  1.3087
10331SOL    HW232188   8.176   5.505   1.054  1.3535  2.1385 -0.3111
10332SOL     OW32189   8.469   6.308   5.989  0.1829  0.3273 -0.3614
10332SOL    HW132190   8.374   6.299   5.998  0.2324 -0.2987 -0.3640
10332SOL    HW232191   8.486   6.278   5.899  0.3988  0.2990 -0.3101
10333SOL     OW32192   6.444   5.062   8.385 -0.5658  0.0301 -0.3595
10333SOL    HW132193   6.410   4.986   8.431  0.3784 -0.7267 -0.8801
10333SOL    HW232194   6.430   5.135   8.446 -1.6056 -0.5201  0.0869
10334SOL     OW32195   0.710   6.279   4.138 -0.4311 -0.1243 -0.1938
10334SOL    HW132196   0.703   6.304   4.231  1.4891  1.6512 -0.4609
10334SOL    HW232197   0.619   6.269   4.110 -1.0845 -0.1560  1.7285
10335SOL     OW32198   8.560   5.938   0.823  0.0097 -0.4732  0.1553
10335SOL    HW132199   8.483   5.972   0.868 -0.4340  0.0335 -0.9521
10335SOL    HW232200   8.534   5.932   0.731  1.7123  1.0197 -0.4737
10336SOL     OW32201   2.262   7.585   6.229  0.8520 -0.2623 -0.4145
10336SOL    HW132202   2.190   7.605   6.170  0.9881 -0.2671 -0.5841
10336SOL    HW232203   2.223   7.588   6.317  0.7638  0.2741 -0.4670
10337SOL     OW32204   2.950   1.107   7.859  0.4646  0.2303 -0.7331
10337SOL    HW132205   2.983   1.157   7.784  1.7638 -0.2804 -0.5295
10337SOL    HW232206   2.878   1.160   7.893  1.3271  1.6062 -0.9680
10338SOL     OW32207   6.690   6.566   8.216 -0.1497 -0.0438 -0.4383
10338SOL    HW132208   6.641   6.531   8.141  1.2195 -0.4916 -1.1639
10338SOL    HW232209   6.642   6.645   8.241 -0.8421 -0.0814 -1.5511
10339SOL     OW32210   7.999   2.764   8.249 -0.2297  0.0931 -0.4413
10339SOL    HW132211   8.061   2.705   8.291  1.7833  1.7141 -1.0230
10339SOL    HW232212   7.952   2.806   8.321  0.5181  0.0715  0.0595
10340SOL     OW32213   5.889   0.800   6.069  0.2115 -0.2691 -0.0032
10340SOL    HW132214   5.980   0.771   6.076  0.6586  1.1872  0.7648
10340SOL    HW232215   5.886   0.880   6.122 -2.0216 -1.3816  1.6756
10341SOL     OW32216   5.892   4.260   2.676  0.4114  0.1169 -0.2121
10341SOL    HW132217   5.947   4.336   2.694  1.0013 -0.3153 -0.1802
10341SOL    HW232218   5.929   4.189   2.729 -0.4623 -0.0616  0.1796
10342SOL     OW32219   5.636   5.209   6.295 -0.4743  0.3827 -0.4313
10342SOL    HW132220   5.709   5.237   6.240 -0.8483  1.5964 -0.3332
10342SOL    HW232221   5.650   5.254   6.379 -1.0900  0.2845 -0.2715
10343SOL     OW32222   1.538   2.473   8.399  0.4411  0.2380  0.4441
10343SOL    HW132223   1.548   2.411   8.472 -1.4355 -1.2709 -0.5071
10343SOL    HW232224   1.626   2.479   8.361  0.5267 -2.7379 -0.0857
10344SOL     OW32225   7.232   3.131   6.351  0.1550  0.6481  0.3781
10344SOL    HW132226   7.158   3.123   6.291 -1.7327  1.2379  2.5129
10344SOL    HW232227   7.231   3.222   6.379  0.5446  0.2260  1.8340
10345SOL     OW32228   4.709   7.345   5.350 -0.4650  0.6903 -0.7878
10345SOL    HW132229   4.671   7.419   5.397  0.4099  0.3677  0.4676
10345SOL    HW232230   4.802   7.368   5.340  0.0662 -0.7152  0.6309
10346SOL     OW32231   2.605   4.132   5.433 -0.5696  0.2109 -0.9826
10346SOL    HW132232   2.578   4.159   5.521 -2.3439 -0.3988 -1.2838
10346SOL    HW232233   2.665   4.200   5.403  1.3186 -0.3647  1.2569
10347SOL     OW32234   6.765   6.159   3.687  0.6049 -0.1848  0.3160
10347SOL    HW132235   6.790   6.191   3.600  2.0292 -0.3682  0.6229
10347SOL    HW232236   6.837   6.100   3.712 -0.5874 -1.4250  0.9392
10348SOL     OW32237   1.189   3.981   3.514 -0.9003  0.2049 -0.6279
10348SOL    HW132238   1.272   3.942   3.540 -1.2613  0.0042  0.2644
10348SOL    HW232239   1.148   3.915   3.457 -1.3986 -0.6540  0.6757
10349SOL     OW32240   2.956   3.683   4.372  0.0053 -0.1709 -0.2828
10349SOL    HW132241   2.879   3.740   4.373 -0.3625 -0.6476 -0.9670
10349SOL    HW232242   3.028   3.741   4.345 -0.6634 -0.3438 -2.7192
10350SOL     OW32243   1.190   3.373   8.444  0.0092  0.1708 -0.5335
10350SOL    HW132244   1.220   3.375   8.353  0.7395  0.5054 -0.2914
10350SOL    HW232245   1.224   3.453   8.483  1.2386 -0.8124  0.5082
10351SOL     OW32246   7.222   2.143   6.608  0.6640 -0.1487  0.2148
10351SOL    HW132247   7.173   2.214   6.568  0.4696 -0.7086 -0.5639
10351SOL    HW232248   7.291   2.122   6.546  2.0410  0.7567  1.3938
10352SOL     OW32249   7.990   6.594   2.992  0.1947  0.4160 -0.0143
10352SOL    HW132250   8.018   6.674   3.036 -0.4161  0.0205  1.1297
10352SOL    HW232251   8.066   6.566   2.942  1.6084 -0.1397  2.3006
10353SOL     OW32252   2.298   8.168   6.579 -0.6814 -0.6041  0.6037
10353SOL    HW132253   2.285   8.195   6.488  0.0750  1.1762  0.9830
10353SOL    HW232254   2.331   8.079   6.573 -0.5703 -0.4891 -0.8844
10354SOL     OW32255   1.354   0.840   1.766 -0.3474  0.2715  0.1206
10354SOL    HW132256   1.274   0.885   1.740  0.7186  1.7985 -0.6707
10354SOL    HW232257   1.414   0.853   1.692  0.4622 -1.3186  0.4524
10355SOL     OW32258   1.268   5.003   3.673  0.2363  0.4883  0.2813
10355SOL    HW132259   1.323   5.040   3.604  0.6851  0.5043  0.6446
10355SOL    HW232260   1.180   5.002   3.635  0.3484  1.1938 -0.0225
10356SOL     OW32261   7.778   2.073   2.695 -0.4554 -0.7654  0.2858
10356SOL    HW132262   7.767   2.082   2.790  1.6747 -1.2239  0.6320
10356SOL    HW232263   7.751   1.983   2.676 -2.6162 -0.1322  0.1117
10357SOL     OW32264   7.849   7.384   7.697 -0.6420 -0.6507  0.0133
10357SOL    HW132265   7.924   7.443   7.703 -0.8739 -0.3469 -0.0577
10357SOL    HW232266   7.836   7.352   7.786 -0.5086 -0.6032  0.0497
10358SOL     OW32267   1.058   0.479   2.815  0.0703  0.5368  0.2701
10358SOL    HW132268   1.013   0.407   2.769  1.1039 -0.6277  1.0258
10358SOL    HW232269   0.994   0.509   2.880 -0.1907 -0.0555  0.2939
10359SOL     OW32270   1.518   6.782   8.473 -0.3004 -0.5041 -0.4924
10359SOL    HW132271   1.548   6.810   8.386 -1.5444  0.6372 -0.5933
10359SOL    HW232272   1.547   6.852   8.532  0.5404 -1.2768  0.0376
10360SOL     OW32273   1.103   5.525   4.222  0.0622  0.7587 -0.0578
10360SOL    HW132274   1.080   5.501   4.312  0.0395 -2.0189 -0.7245
10360SOL    HW232275   1.019   5.532   4.177  0.1284 -1.6370 -0.6779
10361SOL     OW32276   3.004   6.846   4.870 -0.1743 -0.2369  0.5125
10361SOL    HW132277   2.914   6.877   4.865  0.0464  0.9821  2.9947
10361SOL    HW232278   3.013   6.810   4.958  1.7390 -0.4735  0.2700
10362SOL     OW32279   1.745   3.056   2.255  0.3723  0.1208  0.0719
10362SOL    HW132280   1.678   3.097   2.310  0.1924 -0.5634  0.3660
10362SOL    HW232281   1.817   3.119   2.255  0.0775  0.4631  0.4743
10363SOL     OW32282   3.093   4.757   8.061 -0.4760  0.0894  0.1883
10363SOL    HW132283   3.093   4.729   8.152 -0.0283  1.5120  0.6529
10363SOL    HW232284   3.180   4.733   8.028 -0.6915 -0.5584  0.0835
10364SOL     OW32285   5.446   7.973   6.195 -0.1399  0.3061  0.3666
10364SOL    HW132286   5.404   7.907   6.139  0.4666 -0.0145  0.2794
10364SOL    HW232287   5.374   8.030   6.223 -0.7274 -0.5762  0.7065
10365SOL     OW32288   7.210   7.203   3.588 -0.0536  0.7240  0.0710
10365SOL    HW132289   7.240   7.119   3.554  0.7020  0.3737  1.5138
10365SOL    HW232290   7.129   7.221   3.540 -1.1681 -1.6513  0.8885
10366SOL     OW32291   4.023   0.260   7.825 -0.4058  0.3165 -0.1792
10366SOL    HW132292   3.937   0.224   7.848 -0.0774 -0.6618 -0.4372
10366SOL    HW232293   4.018   0.352   7.851 -1.2496  0.0761  0.5741
10367SOL     OW32294   3.579   4.299   7.063 -0.3094 -0.0081 -0.1607
10367SOL    HW132295   3.562   4.284   6.970  0.4127  1.5792 -0.5796
10367SOL    HW232296   3.504   4.348   7.094 -0.0341  0.4299 -0.1820
10368SOL     OW32297   1.172   2.108   2.904 -0.5206 -0.1415  0.5066
10368SOL    HW132298   1.165   2.134   2.995 -1.2014  0.3712  0.3141
10368SOL    HW232299   1.179   2.013   2.906  2.2037 -0.0257  1.2370
10369SOL     OW32300   0.735   4.308   3.444 -0.7550  0.1587  0.1043
10369SOL    HW132301   0.739   4.229   3.390  0.5917  0.6529 -0.5617
10369SOL    HW232302   0.820   4.311   3.488 -0.9226  1.0626  0.3797
10370SOL     OW32303   2.396   0.778   6.549  0.2742  0.4657 -0.3963
10370SOL    HW132304   2.338   0.724   6.496 -0.6986 -0.4316  1.4822
10370SOL    HW232305   2.476   0.726   6.557  1.4049  1.6355 -2.8539
10371SOL     OW32306   3.700   6.328   5.664  0.7637 -0.2721 -0.2301
10371SOL    HW132307   3.667   6.320   5.575 -0.1091 -0.6944  0.1231
10371SOL    HW232308   3.622   6.346   5.718  1.0712 -1.3336  0.6218
10372SOL     OW32309   0.978   2.967   1.841  0.7105  0.6079 -0.0743
10372SOL    HW132310   0.930   3.050   1.848 -0.5852 -0.1912  0.8504
10372SOL    HW232311   1.022   2.957   1.925 -1.5979 -1.0715  1.0123
10373SOL     OW32312   3.968   0.670   2.020 -0.2778 -0.2600  0.3357
10373SOL    HW132313   4.007   0.669   1.933 -1.9238 -2.1487 -0.4627
10373SOL    HW232314   4.032   0.715   2.075  1.8000 -0.9615 -1.3899
10374SOL     OW32315   2.037   5.607   5.625 -0.5169 -0.0124 -0.4302
10374SOL    HW132316   1.974   5.675   5.650 -1.7402 -1.0217 -0.6576
10374SOL    HW232317   1.989   5.525   5.636  0.0976 -0.7071 -2.5338
10375SOL     OW32318   6.154   2.068   2.747 -0.3933 -0.3830 -0.1331
10375SOL    HW132319   6.180   2.079   2.838 -0.2294 -2.8428  0.1956
10375SOL    HW232320   6.195   2.141   2.701  0.7897  0.0536  1.5280
10376SOL     OW32321   0.449   3.779   6.585 -0.1471  0.2905 -0.0920
10376SOL    HW132322   0.452   3.729   6.667  0.1827 -0.2531 -0.4279
10376SOL    HW232323   0.490   3.721   6.521 -0.8909  0.4833 -0.7599
10377SOL     OW32324   1.247   2.730   1.646  0.4384  0.2974 -0.3056
10377SOL    HW132325   1.266   2.682   1.565  0.9331  2.4071 -1.5207
10377SOL    HW232326   1.152   2.734   1.649  0.3911 -0.6121 -0.2508
10378SOL     OW32327   7.234   2.778   0.989 -0.4211  0.2785 -0.0679
10378SOL    HW132328   7.294   2.820   0.927 -0.0116  1.0076  0.7755
10378SOL    HW232329   7.167   2.737   0.935  0.8272 -0.5533 -1.0455
10379SOL     OW32330   1.761   7.928   0.344 -0.1592  0.3506  0.0011
10379SOL    HW132331   1.702   7.853   0.336 -0.4758  0.3750  1.7612
10379SOL    HW232332   1.702   8.004   0.349  0.1474  0.7036 -1.3567
10380SOL     OW32333   7.056   7.053   5.890 -0.2083  0.3166  0.1217
10380SOL    HW132334   7.013   6.988   5.834 -0.3729  2.3245 -2.2591
10380SOL    HW232335   7.148   7.049   5.863  0.2608 -0.5349  1.7038
10381SOL     OW32336   2.957   8.145   4.353 -0.3002 -0.0929 -0.0221
10381SOL    HW132337   2.990   8.108   4.435 -1.0348  0.7472  0.6674
10381SOL    HW232338   3.024   8.209   4.327  0.2038 -0.7522 -0.3889
10382SOL     OW32339   6.503   6.730   7.820  0.3331 -0.6352 -0.1827
10382SOL    HW132340   6.491   6.756   7.728 -1.4283 -0.7330 -0.0175
10382SOL    HW232341   6.536   6.640   7.814 -0.9526 -1.0907 -0.7382
10383SOL     OW32342   4.855   1.745   6.646  0.0163  0.6373 -0.5559
10383SOL    HW132343   4.909   1.808   6.600  0.8429 -0.0274 -0.5157
10383SOL    HW232344   4.781   1.728   6.588  0.8649  0.0709 -1.5008
10384SOL     OW32345   0.780   8.543   1.247 -0.0499  0.2467 -0.2102
10384SOL    HW132346   0.762   8.505   1.161 -1.5812  2.3935 -0.9136
10384SOL    HW232347   0.810   8.632   1.228  0.8766  0.3320  1.4524
10385SOL     OW32348   6.043   3.490   1.296 -0.0513  0.0662  0.2229
10385SOL    HW132349   6.107   3.434   1.253  0.6217  0.5369  0.6063
10385SOL    HW232350   6.079   3.507   1.383 -0.0717  1.3568  0.0029
10386SOL     OW32351   7.363   0.118   4.078 -0.3349  0.4826  0.4239
10386SOL    HW132352   7.308   0.048   4.112 -0.2281  0.4140  0.4564
10386SOL    HW232353   7.390   0.088   3.991 -0.0744  0.3652  0.5446
10387SOL     OW32354   3.379   1.056   2.919  0.5509  0.2713 -0.0643
10387SOL    HW132355   3.327   0.977   2.905 -1.4615  1.6298 -0.6355
10387SOL    HW232356   3.330   1.105   2.985  0.6706  1.9588 -1.1829
10388SOL     OW32357   3.875   5.442   0.109  0.2268  0.6167  0.8417
10388SOL    HW132358   3.819   5.365   0.110 -0.3080  0.9769 -0.1485
10388SOL    HW232359   3.822   5.510   0.068  1.6475  0.7409 -0.9161
10389SOL     OW32360   4.826   0.265   1.800  0.0285 -0.0229 -0.3788
10389SOL    HW132361   4.819   0.180   1.843  3.4598 -0.2146  0.0824
10389SOL    HW232362   4.735   0.291   1.783 -1.1717 -3.5275 -0.1486
10390SOL     OW32363   1.293   8.211   4.944  0.2316  0.3170 -0.3539
10390SOL    HW132364   1.261   8.198   4.854  0.5907 -0.5933 -0.3516
10390SOL    HW232365   1.275   8.304   4.962 -1.5766  0.0748 -0.6859
10391SOL     OW32366   0.204   7.986   6.279  0.0530  0.2087  1.0795
10391SOL    HW132367   0.154   8.003   6.359 -0.7049  1.8609  0.3105
10391SOL    HW232368   0.141   8.000   6.208  0.1792 -3.0752  0.1728
10392SOL     OW32369   6.259   8.522   0.812 -0.8363 -0.1048 -0.7651
10392SOL    HW132370   6.318   8.596   0.826  0.4938 -1.2594  0.1457
10392SOL    HW232371   6.239   8.524   0.718  0.5463  0.4429 -1.0718
10393SOL     OW32372   3.014   6.368   7.576 -0.2795  0.4248  0.0215
10393SOL    HW132373   3.009   6.285   7.528 -1.0695  0.2018  0.4709
10393SOL    HW232374   2.979   6.433   7.515  0.8589  0.5296 -0.5356
10394SOL     OW32375   5.476   1.801   2.807  0.0531  0.0835  0.5214
10394SOL    HW132376   5.433   1.827   2.725  0.8376 -0.3078 -0.0223
10394SOL    HW232377   5.504   1.711   2.793  2.3734  0.7819  0.2819
10395SOL     OW32378   6.489   4.864   4.088  0.2189 -0.0048 -0.1436
10395SOL    HW132379   6.449   4.784   4.122 -1.1839  0.8561  0.3312
10395SOL    HW232380   6.560   4.884   4.150 -0.1944 -0.2346  0.4075
10396SOL     OW32381   6.714   2.165   7.122 -0.2700 -0.1658  0.3627
10396SOL    HW132382   6.809   2.170   7.133 -0.0318  0.7158 -1.5799
10396SOL    HW232383   6.685   2.100   7.186  1.6932 -0.8094  0.6554
10397SOL     OW32384   3.366   7.952   5.533  0.1207 -0.4426 -0.7580
10397SOL    HW132385   3.383   8.046   5.528  4.2055 -0.9581 -0.2014
10397SOL    HW232386   3.381   7.920   5.444 -0.1284 -0.7126 -0.7039
10398SOL     OW32387   1.719   5.415   3.965  0.1742 -0.2464  0.0911
10398SOL    HW132388   1.661   5.432   4.040 -0.3278 -0.8635 -0.1482
10398SOL    HW232389   1.781   5.488   3.966  0.0460 -0.1298  0.9862
10399SOL     OW32390   6.181   4.985   2.203 -0.0440 -0.0621  0.4244
10399SOL    HW132391   6.252   5.033   2.160 -0.0263 -0.6291 -0.2014
10399SOL    HW232392   6.119   5.053   2.231  0.0587  0.3389 -0.3003
10400SOL     OW32393   7.093   7.739   4.201  0.5308  0.0866  0.7183
10400SOL    HW132394   7.062   7.728   4.291  0.4418  1.1374  0.8310
10400SOL    HW232395   7.149   7.663   4.186 -2.3058 -2.1206  0.3764
10401SOL     OW32396   4.304   1.755   4.058  0.1123 -0.4177  0.2412
10401SOL    HW132397   4.271   1.665   4.057 -0.9133 -0.1114  2.0925
10401SOL    HW232398   4.263   1.795   4.134  0.4723  1.6700 -0.5887
10402SOL     OW32399   8.479   6.653   6.151  0.4261  0.7975  0.0479
10402SOL    HW132400   8.541   6.618   6.215  0.0777 -1.7132 -0.8798
10402SOL    HW232401   8.396   6.612   6.174 -0.3691  2.2292 -0.2130
10403SOL     OW32402   1.991   2.649   4.996  0.1690 -0.0516 -0.2101
10403SOL    HW132403   1.949   2.647   4.910  0.4483  0.4530 -0.3619
10403SOL    HW232404   1.956   2.728   5.037  0.8412  0.2802 -0.2722
10404SOL     OW32405   1.418   6.684   0.783 -0.6636 -0.2288  0.2958
10404SOL    HW132406   1.473   6.608   0.767 -0.6927 -0.6417  1.9686
10404SOL    HW232407   1.480   6.756   0.794 -0.6193 -0.0677 -0.8912
10405SOL     OW32408   2.137   0.966   8.021  0.5524  0.3435  0.2438
10405SOL    HW132409   2.188   0.887   8.004  0.0019 -0.4868  2.1589
10405SOL    HW232410   2.166   1.028   7.954  0.9666 -1.4711 -1.3364
10406SOL     OW32411   4.364   0.165   6.474 -0.1591 -0.1508 -0.3452
10406SOL    HW132412   4.346   0.195   6.564 -0.8155 -0.8740 -0.2215
10406SOL    HW232413   4.457   0.146   6.473 -0.3426 -1.1980  0.5223
10407SOL     OW32414   1.661   7.922   7.392 -0.4166  0.4769 -0.6361
10407SOL    HW132415   1.707   7.850   7.436 -0.9155 -0.7901 -2.0738
10407SOL    HW232416   1.688   8.001   7.439 -0.0203 -0.6654  1.1400
10408SOL     OW32417   7.930   1.088   2.202  0.2486 -0.2138  0.1111
10408SOL    HW132418   7.967   1.144   2.270 -0.2284 -0.3642  0.5061
10408SOL    HW232419   7.854   1.047   2.244  0.3920 -0.8987 -0.2702
10409SOL     OW32420   6.132   0.938   0.768  0.3349 -0.0749 -0.7415
10409SOL    HW132421   6.135   1.023   0.725 -1.1693 -0.3545 -1.4861
10409SOL    HW232422   6.173   0.878   0.705 -0.3856 -0.2083 -1.0994
10410SOL     OW32423   5.542   4.081   1.936  0.1682  0.0836  0.3641
10410SOL    HW132424   5.616   4.037   1.896  0.9674  0.7405  1.0654
10410SOL    HW232425   5.572   4.171   1.949 -0.4102  0.1397  1.4934
10411SOL     OW32426   1.433   3.941   3.627 -0.3543 -0.4620  0.1822
10411SOL    HW132427   1.459   3.857   3.590 -1.0487 -1.0494  1.0099
10411SOL    HW232428   1.500   4.002   3.596 -0.5005 -1.0597 -1.4501
10412SOL     OW32429   3.229   1.420   7.733  0.2087 -0.1968 -0.3773
10412SOL    HW132430   3.251   1.346   7.789 -1.3247  1.2319  2.2926
10412SOL    HW232431   3.309   1.473   7.732 -0.9887  2.3683  5.0151
10413SOL     OW32432   5.816   6.678   7.101 -0.3205  0.2782  0.0355
10413SOL    HW132433   5.871   6.613   7.057  1.1540  0.0196  2.1092
10413SOL    HW232434   5.735   6.680   7.050  0.5824 -1.3141 -1.5574
10414SOL     OW32435   4.321   3.579   5.849  0.1317 -0.0615 -0.7155
10414SOL    HW132436   4.384   3.523   5.894  0.5325 -0.4394 -1.7332
10414SOL    HW232437   4.373   3.632   5.789 -0.6420 -1.6877 -2.9556
10415SOL     OW32438   5.043   8.364   1.430 -0.6014  0.4938  0.6910
10415SOL    HW132439   5.116   8.303   1.436 -0.0974  1.1209  1.0853
10415SOL    HW232440   4.987   8.342   1.505 -0.6228  0.2562  0.6045
10416SOL     OW32441   1.482   5.259   3.813 -0.2054 -0.2122 -0.1712
10416SOL    HW132442   1.551   5.305   3.861 -0.2821 -1.6106  1.3767
10416SOL    HW232443   1.404   5.313   3.826 -0.1670 -0.4409  1.1164
10417SOL     OW32444   4.032   5.933   0.927 -0.2612  0.0494  0.7314
10417SOL    HW132445   3.946   5.907   0.894 -0.1607  2.0992 -1.4128
10417SOL    HW232446   4.060   5.860   0.982 -2.1064 -1.9799 -0.8420
10418SOL     OW32447   7.925   2.304   5.904  0.1461  0.4720 -0.5444
10418SOL    HW132448   7.949   2.387   5.863 -0.4939  2.3143  2.4472
10418SOL    HW232449   7.840   2.282   5.866 -0.4791  2.1358 -0.1722
10419SOL     OW32450   6.456   1.099   2.001 -0.0253 -0.5724 -0.3551
10419SOL    HW132451   6.439   1.093   2.095  1.0822  1.2781  0.0322
10419SOL    HW232452   6.478   1.010   1.974  1.2719 -0.8842  1.5135
10420SOL     OW32453   7.756   0.488   4.590 -0.7933  0.1191 -0.2569
10420SOL    HW132454   7.783   0.466   4.501  0.2939 -0.2960  0.1641
10420SOL    HW232455   7.812   0.561   4.616 -1.7250  0.8448 -0.2278
10421SOL     OW32456   7.819   2.606   7.441  0.5081 -0.3065  0.0370
10421SOL    HW132457   7.728   2.583   7.461  0.7193 -0.8142  0.4447
10421SOL    HW232458   7.852   2.646   7.521  0.5104  0.3063 -0.2670
10422SOL     OW32459   4.168   0.666   6.689 -0.5759 -0.2950  0.1757
10422SOL    HW132460   4.157   0.620   6.606  0.3352 -0.7356  0.2815
10422SOL    HW232461   4.261   0.656   6.710 -1.0289 -1.3848  1.9351
10423SOL     OW32462   7.722   0.063   6.808 -0.0555 -0.1568  0.3143
10423SOL    HW132463   7.668   0.092   6.882  0.9394  0.1447  0.9455
10423SOL    HW232464   7.697   0.120   6.736  0.1104  0.6470  0.8746
10424SOL     OW32465   0.614   7.883   2.390  0.0917 -0.2119  0.5671
10424SOL    HW132466   0.554   7.873   2.316 -1.4863  0.9540  1.6353
10424SOL    HW232467   0.593   7.809   2.448 -1.5821  1.1032  1.7366
10425SOL     OW32468   4.835   3.672   1.826  0.6078  0.6706 -0.0897
10425SOL    HW132469   4.805   3.746   1.879 -1.7012  0.5125 -1.0307
10425SOL    HW232470   4.777   3.673   1.749  2.3262 -0.4794 -1.4869
10426SOL     OW32471   2.180   7.202   3.492 -0.2532  0.2837 -0.1417
10426SOL    HW132472   2.094   7.162   3.504 -0.8658  1.1121 -1.5966
10426SOL    HW232473   2.213   7.214   3.581 -1.4763 -0.3677  0.4300
10427SOL     OW32474   4.751   8.363   8.580  0.3776 -0.0739  0.2974
10427SOL    HW132475   4.837   8.340   8.615  0.0254 -0.2486  1.0711
10427SOL    HW232476   4.768   8.430   8.514  0.9603  1.1457  1.6423
10428SOL     OW32477   7.455   5.833   0.363  0.0398  0.2289 -0.1683
10428SOL    HW132478   7.420   5.862   0.447 -0.8435 -0.0374 -0.4381
10428SOL    HW232479   7.402   5.757   0.339 -0.4039  0.9023 -1.4514
10429SOL     OW32480   6.145   7.337   2.149 -0.2257  0.1740  0.2245
10429SOL    HW132481   6.178   7.418   2.111 -1.0450  0.7208  0.6509
10429SOL    HW232482   6.218   7.276   2.143  1.2235  1.6138  1.9832
10430SOL     OW32483   8.070   6.361   0.067 -0.0060  0.1467  0.5178
10430SOL    HW132484   8.159   6.370   0.103 -0.2749  0.1309  1.2033
10430SOL    HW232485   8.070   6.418  -0.010  0.6329  0.0577  0.4415
10431SOL     OW32486   1.834   6.366   2.865 -0.3167  0.2357 -0.3218
10431SOL    HW132487   1.839   6.461   2.875  0.8072  0.2369 -0.7239
10431SOL    HW232488   1.921   6.340   2.834  0.3989 -1.2778  2.6183
10432SOL     OW32489   0.871   8.332   3.992  0.0730  1.2202 -0.2537
10432SOL    HW132490   0.890   8.318   3.899 -1.8851  2.3370 -0.8881
10432SOL    HW232491   0.915   8.415   4.013  3.3125 -0.5827  0.8159
10433SOL     OW32492   6.764   6.651   3.664  0.3088 -0.4155 -0.1549
10433SOL    HW132493   6.771   6.716   3.734 -0.0332 -0.2595 -0.2655
10433SOL    HW232494   6.849   6.653   3.621  0.2479  0.0646 -0.2531
10434SOL     OW32495   1.882   2.414   3.757  0.8425  0.2889 -0.5707
10434SOL    HW132496   1.880   2.364   3.675  0.8475  0.7967 -0.8869
10434SOL    HW232497   1.898   2.504   3.729 -0.1609  0.6314 -0.0843
10435SOL     OW32498   0.963   7.275   0.879  0.0460  0.5663 -0.4420
10435SOL    HW132499   1.057   7.277   0.894  0.0769  0.4891 -0.6158
10435SOL    HW232500   0.951   7.316   0.793  0.0097 -0.2091 -0.8170
10436SOL     OW32501   1.445   1.874   7.234  0.1737 -0.0022  0.4917
10436SOL    HW132502   1.449   1.876   7.330 -0.8602 -0.3483  0.5505
10436SOL    HW232503   1.515   1.814   7.209 -0.5551 -1.1669  1.1318
10437SOL     OW32504   5.439   1.040   3.596 -0.2046  0.2241 -0.4587
10437SOL    HW132505   5.495   1.007   3.667  0.3521  0.9954 -0.5414
10437SOL    HW232506   5.355   1.055   3.639  0.5391  2.1624  0.4233
10438SOL     OW32507   0.575   8.493   8.354  0.2451 -0.1559 -0.7500
10438SOL    HW132508   0.654   8.495   8.408 -0.4166 -0.8035  0.2770
10438SOL    HW232509   0.589   8.418   8.296  1.7716  1.6186 -2.8300
10439SOL     OW32510   1.577   3.779   1.039  0.0406  0.1232 -0.0060
10439SOL    HW132511   1.668   3.768   1.014  0.0858  0.1345  0.1514
10439SOL    HW232512   1.532   3.804   0.958  0.3129  0.9146  0.0799
10440SOL     OW32513   5.284   2.773   1.731  0.1572 -0.0898 -0.6634
10440SOL    HW132514   5.378   2.754   1.735 -0.4514 -3.6011  0.2328
10440SOL    HW232515   5.249   2.710   1.668 -1.7051  0.7649 -0.5551
10441SOL     OW32516   1.792   5.455   6.890 -0.3462  0.5197  0.8011
10441SOL    HW132517   1.790   5.386   6.823 -0.3113  0.7140  0.6006
10441SOL    HW232518   1.733   5.523   6.857  2.1742  2.1374 -0.6655
10442SOL     OW32519   5.037   2.794   7.115 -0.2746 -0.1185  0.0259
10442SOL    HW132520   5.129   2.766   7.123 -0.4895 -0.7626  0.2948
10442SOL    HW232521   5.038   2.861   7.046  0.3613 -0.2897 -0.1379
10443SOL     OW32522   3.098   6.816   0.892 -0.0951 -0.0253 -0.8931
10443SOL    HW132523   3.134   6.729   0.875  1.6054  0.3872  0.3276
10443SOL    HW232524   3.071   6.847   0.806  1.1240 -0.9798 -1.6635
10444SOL     OW32525   4.278   4.065   5.643 -0.7294  0.4479  0.2539
10444SOL    HW132526   4.299   4.152   5.677 -0.2186 -0.2280  1.7185
10444SOL    HW232527   4.252   4.081   5.552 -0.5852  2.1180  0.4760
10445SOL     OW32528   0.841   0.870   3.051 -0.3611  0.1595  0.4942
10445SOL    HW132529   0.922   0.827   3.077 -0.3616  1.1069  2.1645
10445SOL    HW232530   0.864   0.963   3.043 -0.6243  0.0840 -1.9200
10446SOL     OW32531   5.720   7.087   3.416  0.2112 -0.6083 -0.0269
10446SOL    HW132532   5.770   7.053   3.491 -0.3122 -1.7887 -0.1845
10446SOL    HW232533   5.667   7.158   3.452  0.6443 -0.5531  0.5233
10447SOL     OW32534   3.581   6.760   5.862 -0.0142 -0.0964  0.4541
10447SOL    HW132535   3.611   6.714   5.783 -0.0297 -0.1005  0.4504
10447SOL    HW232536   3.486   6.766   5.852 -0.0235 -0.1527  0.5011
10448SOL     OW32537   3.642   1.409   1.431 -0.4246 -0.1180  0.2875
10448SOL    HW132538   3.663   1.460   1.353 -0.9834  1.1510  0.9422
10448SOL    HW232539   3.572   1.458   1.474 -0.6718 -1.2141  1.1773
10449SOL     OW32540   8.130   7.079   6.800 -0.1529 -0.3323 -0.3843
10449SOL    HW132541   8.100   7.169   6.816 -0.7023 -0.7185  0.7911
10449SOL    HW232542   8.058   7.038   6.751 -0.0803 -0.2659 -0.5492
10450SOL     OW32543   8.373   7.976   1.879  0.4741 -0.6450 -0.1497
10450SOL    HW132544   8.370   8.020   1.793  0.6767  1.3494  0.7998
10450SOL    HW232545   8.312   8.026   1.933  0.2060 -1.9987  0.8436
10451SOL     OW32546   5.503   2.534   2.603  0.1173 -0.8257 -1.1139
10451SOL    HW132547   5.523   2.449   2.564  0.8042 -1.1331 -0.1229
10451SOL    HW232548   5.564   2.542   2.676 -1.3303 -0.4046  0.0897
10452SOL     OW32549   3.514   5.079   6.207  0.3889 -0.0056  0.3444
10452SOL    HW132550   3.533   5.114   6.293  1.8455 -1.5474  0.7038
10452SOL    HW232551   3.469   4.996   6.224 -0.8108  0.4531 -0.4314
10453SOL     OW32552   1.259   5.245   8.513 -0.2210 -0.1130  0.0853
10453SOL    HW132553   1.184   5.293   8.548  0.2507  0.5935  0.1540
10453SOL    HW232554   1.304   5.307   8.456  3.3597  1.4961  4.0913
10454SOL     OW32555   1.917   5.348   2.428  0.0492  0.2186  0.2743
10454SOL    HW132556   1.968   5.368   2.350  0.9220  0.1741  0.8132
10454SOL    HW232557   1.902   5.434   2.469 -1.2327  0.3506 -0.4161
10455SOL     OW32558   4.960   0.737   0.665  0.0655  0.3667 -0.0300
10455SOL    HW132559   5.017   0.695   0.600  0.3403 -1.1583  1.1359
10455SOL    HW232560   5.020   0.767   0.733 -0.4040 -0.3743  0.7370
10456SOL     OW32561   4.758   6.856   3.533  0.1746 -0.5265  0.2025
10456SOL    HW132562   4.813   6.888   3.462 -0.8261  0.9821  0.0656
10456SOL    HW232563   4.703   6.788   3.493  0.6126 -0.6946 -0.1133
10457SOL     OW32564   1.708   3.937   6.633 -0.3667 -0.3682 -0.0017
10457SOL    HW132565   1.726   3.883   6.710 -0.7022 -1.3752 -0.6178
10457SOL    HW232566   1.639   3.890   6.586  1.1582 -0.7970 -1.9377
10458SOL     OW32567   5.775   0.407   4.012  0.5527 -0.1496 -0.1205
10458SOL    HW132568   5.713   0.335   4.025 -0.7726  1.3869  3.2980
10458SOL    HW232569   5.746   0.450   3.931 -0.8312 -1.3521 -0.3063
10459SOL     OW32570   2.130   4.109   5.147  0.4303  0.3382 -0.0261
10459SOL    HW132571   2.184   4.083   5.222  0.1055 -1.4970 -0.3966
10459SOL    HW232572   2.091   4.193   5.173  1.4362  0.4240  1.2687
10460SOL     OW32573   1.927   5.278   2.098 -0.6024  0.3936 -0.4436
10460SOL    HW132574   2.000   5.229   2.136  0.2567  1.3187 -0.8390
10460SOL    HW232575   1.849   5.241   2.139  0.1317 -0.2044  0.4557
10461SOL     OW32576   0.708   6.178   1.974 -0.3022 -0.6365  0.1440
10461SOL    HW132577   0.782   6.237   1.988 -0.6139 -0.4532  1.1485
10461SOL    HW232578   0.739   6.093   2.007  0.0435 -0.9752 -1.0252
10462SOL     OW32579   4.457   7.629   0.693  0.4414 -0.5130 -0.2866
10462SOL    HW132580   4.437   7.538   0.717  0.2459 -0.1335  1.0822
10462SOL    HW232581   4.537   7.623   0.640  0.4217 -1.4754 -0.2220
10463SOL     OW32582   0.044   5.681   8.297  0.0542 -0.6417  0.3951
10463SOL    HW132583   0.012   5.740   8.365 -0.0453  1.7703 -1.5728
10463SOL    HW232584   0.137   5.702   8.289 -0.2397  0.2614 -1.1721
10464SOL     OW32585   1.747   0.737   7.190 -0.0574 -0.1147  0.3277
10464SOL    HW132586   1.709   0.790   7.259 -0.1743 -0.1908  0.3215
10464SOL    HW232587   1.806   0.796   7.144 -0.9490  0.2948 -0.3159
10465SOL     OW32588   6.309   4.309   6.137 -0.3617  0.8822  0.1965
10465SOL    HW132589   6.315   4.234   6.078  2.0640  2.8938 -2.4550
10465SOL    HW232590   6.371   4.290   6.207 -0.5353 -0.0187  0.1112
10466SOL     OW32591   5.099   0.897   5.615  0.0327  0.4639 -0.1488
10466SOL    HW132592   5.167   0.838   5.580 -1.9741 -1.4676 -1.0641
10466SOL    HW232593   5.114   0.896   5.710 -0.0851 -1.8245 -0.0885
10467SOL     OW32594   4.155   7.206   4.818  0.1058 -0.0390  0.4026
10467SOL    HW132595   4.098   7.260   4.763  1.2193  1.4377  0.6178
10467SOL    HW232596   4.167   7.126   4.769 -2.2533 -0.4872  0.4208
10468SOL     OW32597   5.693   0.799   3.973 -0.1118 -0.9845 -0.8170
10468SOL    HW132598   5.749   0.723   3.956  0.8365 -0.7854  1.1757
10468SOL    HW232599   5.697   0.811   4.068 -0.8171  1.1270 -1.0150
10469SOL     OW32600   6.803   6.109   7.300 -0.2852  0.3187  0.3312
10469SOL    HW132601   6.866   6.046   7.265 -1.2253 -0.0072 -0.8207
10469SOL    HW232602   6.809   6.099   7.395 -0.4885 -1.5909  0.1689
10470SOL     OW32603   7.210   8.539   4.176  0.2954  0.2588 -0.3182
10470SOL    HW132604   7.199   8.466   4.116 -0.4775  0.3782 -0.3358
10470SOL    HW232605   7.263   8.504   4.248  0.0769 -0.2668 -0.4133
10471SOL     OW32606   0.997   5.364   8.289  0.5286  0.2279 -0.2867
10471SOL    HW132607   1.030   5.368   8.379  0.3264  0.2949 -0.2158
10471SOL    HW232608   0.949   5.282   8.285 -0.8943  0.9992  0.1563
10472SOL     OW32609   2.764   3.457   5.814 -0.1428 -0.0389 -0.6795
10472SOL    HW132610   2.803   3.449   5.727  0.6676 -1.6429 -0.2105
10472SOL    HW232611   2.705   3.382   5.821 -0.4316  0.2480  0.0420
10473SOL     OW32612   1.975   1.796   7.976 -0.1215 -0.1786  0.2205
10473SOL    HW132613   1.913   1.800   8.049  1.1026  0.0030  1.2754
10473SOL    HW232614   2.023   1.878   7.981 -0.6087  0.2379 -1.3537
10474SOL     OW32615   4.530   4.982   4.068  0.8282  0.5173 -0.4218
10474SOL    HW132616   4.481   4.980   3.986  0.6257  3.0222 -0.4132
10474SOL    HW232617   4.482   4.923   4.126 -0.7155  0.9705 -1.2013
10475SOL     OW32618   0.579   5.616   4.039 -0.2354  0.2601 -0.4784
10475SOL    HW132619   0.550   5.640   4.127  0.4265  2.3504 -0.7626
10475SOL    HW232620   0.504   5.570   4.001 -0.5752 -0.5524  1.1074
10476SOL     OW32621   8.361   6.260   5.731 -0.2876 -0.0141 -0.0738
10476SOL    HW132622   8.386   6.189   5.671  0.1357  0.7551 -0.8274
10476SOL    HW232623   8.344   6.335   5.674  0.3811  0.8174  0.7777
10477SOL     OW32624   1.591   0.044   5.191 -0.3667  0.1420  0.3844
10477SOL    HW132625   1.685   0.063   5.185 -0.4491  1.4614  2.4709
10477SOL    HW232626   1.550   0.113   5.138 -0.2807  1.7306  2.2684
10478SOL     OW32627   4.196   0.253   4.085 -0.1989 -0.1062  0.0534
10478SOL    HW132628   4.108   0.233   4.051  0.9964  0.9993 -4.3930
10478SOL    HW232629   4.236   0.168   4.100 -0.8536 -0.7370 -1.5375
10479SOL     OW32630   2.243   6.352   2.469 -0.8858  0.4958 -0.3019
10479SOL    HW132631   2.188   6.296   2.415 -1.3828  0.4980  0.1910
10479SOL    HW232632   2.321   6.300   2.487 -2.4525 -1.1899  2.3898
10480SOL     OW32633   3.289   7.580   3.391 -0.1623  0.5091  0.0223
10480SOL    HW132634   3.283   7.489   3.421  0.4776  0.6748  0.6538
10480SOL    HW232635   3.201   7.615   3.404  0.0653  0.5514  1.6370
10481SOL     OW32636   4.016   7.243   3.866  0.2468  0.1856  0.5306
10481SOL    HW132637   3.963   7.170   3.899  0.0241 -0.1321 -0.4997
10481SOL    HW232638   3.961   7.320   3.879  0.2118  0.0853  1.0016
10482SOL     OW32639   5.962   5.575   1.992  0.2241 -0.0353  0.0959
10482SOL    HW132640   6.027   5.526   2.042 -0.4316 -3.4774 -2.1159
10482SOL    HW232641   5.895   5.600   2.057  0.5746 -2.1801  1.3500
10483SOL     OW32642   5.097   0.542   2.373 -0.2346 -0.1219  0.1655
10483SOL    HW132643   5.101   0.634   2.398 -1.8023 -0.4373  1.7837
10483SOL    HW232644   5.186   0.509   2.389  0.0542  0.8485  0.6420
10484SOL     OW32645   6.576   1.618   7.185  0.1130  0.0066 -0.1484
10484SOL    HW132646   6.511   1.555   7.155  2.2883 -1.6099 -1.8500
10484SOL    HW232647   6.614   1.653   7.105  1.1889  1.0545  0.7794
10485SOL     OW32648   7.694   8.039   3.463  0.2240 -0.0930  0.0664
10485SOL    HW132649   7.720   8.120   3.509  1.9234 -0.5547 -0.0142
10485SOL    HW232650   7.698   7.972   3.531  1.3457 -0.5291 -0.4051
10486SOL     OW32651   0.202   5.823   0.887  0.0451  0.0248 -0.0011
10486SOL    HW132652   0.117   5.839   0.845  0.5082  0.1936 -0.9087
10486SOL    HW232653   0.250   5.770   0.824 -0.1245 -1.8850  1.4067
10487SOL     OW32654   2.671   5.068   4.177  0.3086  0.0370  0.2836
10487SOL    HW132655   2.729   5.140   4.203 -0.6997  1.1976 -0.5671
10487SOL    HW232656   2.730   4.997   4.153  1.3133  0.0037  2.6139
10488SOL     OW32657   5.983   8.122   5.169  0.0012  0.3053  0.2998
10488SOL    HW132658   6.049   8.053   5.178  0.5499  0.7778 -0.0156
10488SOL    HW232659   5.968   8.154   5.258  1.1487  1.0602  0.2402
10489SOL     OW32660   6.617   4.335   3.165  0.3445 -0.5058 -0.4828
10489SOL    HW132661   6.591   4.426   3.151 -0.5808 -1.0038 -2.3536
10489SOL    HW232662   6.545   4.283   3.129 -0.0038 -2.0478  2.1531
10490SOL     OW32663   2.695   2.298   2.927 -0.2288  0.1764 -0.2943
10490SOL    HW132664   2.633   2.348   2.875 -0.4039 -1.5976 -1.9308
10490SOL    HW232665   2.759   2.266   2.863 -0.5573 -2.2732  0.4986
10491SOL     OW32666   3.603   1.544   2.536  1.1401  0.1369 -0.3173
10491SOL    HW132667   3.608   1.469   2.477  2.9161 -0.2551  0.2739
10491SOL    HW232668   3.648   1.615   2.490 -0.2672  0.7939 -0.7461
10492SOL     OW32669   3.246   5.408   1.267 -0.0934  0.4347  0.0116
10492SOL    HW132670   3.190   5.444   1.335 -1.3775 -1.0920 -0.1798
10492SOL    HW232671   3.226   5.314   1.266  1.3969  0.0840 -1.0784
10493SOL     OW32672   6.819   6.250   6.072  0.6351  0.0817 -0.0493
10493SOL    HW132673   6.737   6.232   6.117  0.6382 -0.2410 -0.1662
10493SOL    HW232674   6.874   6.174   6.091  1.0424  0.4607  0.3309
10494SOL     OW32675   7.845   6.058   4.520 -0.2031 -0.0152  0.6207
10494SOL    HW132676   7.930   6.044   4.479  0.0520 -0.7493  1.3826
10494SOL    HW232677   7.863   6.059   4.614 -0.9693  0.3213  0.7783
10495SOL     OW32678   7.092   7.077   4.584 -0.2592 -0.3189  0.1390
10495SOL    HW132679   7.105   6.998   4.636  3.2128 -0.5415 -0.8237
10495SOL    HW232680   7.160   7.137   4.614  0.7733  0.1780 -2.8592
10496SOL     OW32681   1.830   1.435   5.252  0.2084 -0.2269  0.0511
10496SOL    HW132682   1.739   1.449   5.279 -0.5794 -0.2687 -2.3693
10496SOL    HW232683   1.834   1.343   5.227  0.4946  0.1119 -1.2367
10497SOL     OW32684   3.815   2.153   2.446 -0.0153 -0.0239 -0.1202
10497SOL    HW132685   3.896   2.178   2.402  0.9641 -0.6738  1.2519
10497SOL    HW232686   3.841   2.132   2.535 -1.2769 -2.6232 -0.2664
10498SOL     OW32687   7.735   6.243   4.374  0.2298  0.4906 -0.5349
10498SOL    HW132688   7.744   6.212   4.465 -0.2617  1.6974 -0.0552
10498SOL    HW232689   7.773   6.330   4.375  1.2937  0.0597 -1.7877
10499SOL     OW32690   6.793   7.606   4.888  0.0138 -0.4433  0.2013
10499SOL    HW132691   6.812   7.691   4.848 -0.4422 -0.5376 -0.2318
10499SOL    HW232692   6.870   7.553   4.869 -0.9157 -1.0706 -2.2142
10500SOL     OW32693   7.872   0.994   4.078 -0.0836 -0.0692 -0.6072
10500SOL    HW132694   7.908   0.998   4.167 -1.1004 -0.4776 -0.1651
10500SOL    HW232695   7.948   0.975   4.022  0.7251  1.0717  0.0477
10501SOL     OW32696   3.290   7.881   2.128 -0.1966 -0.4267 -0.0538
10501SOL    HW132697   3.344   7.960   2.130 -1.1137  0.2232  1.7480
10501SOL    HW232698   3.353   7.809   2.123  0.6452  0.3659 -2.4877
10502SOL     OW32699   6.859   8.119   2.105 -0.0715  0.0837 -0.3395
10502SOL    HW132700   6.950   8.145   2.094 -0.0485 -0.6700 -2.4084
10502SOL    HW232701   6.855   8.029   2.075 -1.4997  0.1115 -0.3326
10503SOL     OW32702   8.045   6.518   0.570 -0.1059  0.4729  0.4507
10503SOL    HW132703   8.062   6.432   0.608  1.0992  1.1512  1.5293
10503SOL    HW232704   8.111   6.528   0.501 -0.7562  0.2274 -0.2249
10504SOL     OW32705   5.426   1.171   3.934 -0.0504  0.0426 -0.0266
10504SOL    HW132706   5.492   1.119   3.889 -1.1268 -0.0174 -1.6316
10504SOL    HW232707   5.352   1.111   3.948  0.1564  0.1196  1.6907
10505SOL     OW32708   3.465   3.212   2.173  0.1246  0.6614  0.3428
10505SOL    HW132709   3.529   3.283   2.179  1.3684 -0.5411  2.1128
10505SOL    HW232710   3.505   3.148   2.114 -0.1499  0.5741  0.2495
10506SOL     OW32711   2.162   0.684   7.322  0.6745 -0.4424 -0.0479
10506SOL    HW132712   2.233   0.624   7.298  1.0775  0.2473 -0.6510
10506SOL    HW232713   2.082   0.634   7.307  1.0215 -1.1710  0.4651
10507SOL     OW32714   5.266   0.828   1.615 -0.0164  0.0980  0.2827
10507SOL    HW132715   5.268   0.751   1.672  0.8990  0.1694  0.3511
10507SOL    HW232716   5.237   0.794   1.530  0.0755 -0.2692  0.3951
10508SOL     OW32717   3.069   2.095   7.442  0.6476  0.5558  0.6160
10508SOL    HW132718   3.137   2.135   7.496  0.2847  0.5256  1.0943
10508SOL    HW232719   2.995   2.082   7.501  0.7660 -0.8713  0.4811
10509SOL     OW32720   6.295   3.442   5.193 -0.0944 -0.0356  0.3386
10509SOL    HW132721   6.212   3.403   5.219 -0.9390 -1.1895 -3.4316
10509SOL    HW232722   6.360   3.375   5.213 -0.1543  0.4300  2.2817
10510SOL     OW32723   5.230   6.299   2.285 -0.0020 -0.2985 -0.3536
10510SOL    HW132724   5.146   6.297   2.241 -0.1843 -1.2021  0.0295
10510SOL    HW232725   5.244   6.392   2.306 -0.1225  0.0940 -1.8703
10511SOL     OW32726   2.608   6.840   0.262  0.5245 -0.1187  0.7340
10511SOL    HW132727   2.597   6.906   0.193 -1.2637 -0.4787  0.6153
10511SOL    HW232728   2.654   6.768   0.220  0.5352  0.1671  0.2523
10512SOL     OW32729   3.279   7.319   3.468 -0.2541 -0.0483 -0.7042
10512SOL    HW132730   3.192   7.289   3.493  0.2315 -1.0943 -0.2333
10512SOL    HW232731   3.330   7.239   3.454  0.2994  0.5211 -2.2300
10513SOL     OW32732   4.086   0.752   1.789 -0.1905  0.2308 -0.3832
10513SOL    HW132733   4.020   0.809   1.750  1.6120  0.9516 -2.6006
10513SOL    HW232734   4.169   0.782   1.751  1.3808 -0.9695  1.8709
10514SOL     OW32735   6.032   6.218   7.224 -0.0477  0.0062 -0.2082
10514SOL    HW132736   6.012   6.291   7.283  1.1064  0.0537  0.1568
10514SOL    HW232737   6.115   6.244   7.183 -0.8214 -0.0132 -1.8858
10515SOL     OW32738   0.785   1.197   4.804  0.3481 -0.6002 -0.4798
10515SOL    HW132739   0.732   1.151   4.869  0.7045 -0.1490  0.1393
10515SOL    HW232740   0.833   1.262   4.854  0.4693 -0.0989 -1.2318
10516SOL     OW32741   2.722   8.248   5.877 -0.0076  0.2024 -0.2857
10516SOL    HW132742   2.714   8.336   5.915  0.2076 -0.2362  0.7941
10516SOL    HW232743   2.782   8.202   5.936  0.6564 -0.3806 -1.3863
10517SOL     OW32744   2.715   0.880   5.772  0.0763 -0.3822 -0.1721
10517SOL    HW132745   2.719   0.834   5.688  2.8008 -0.0754 -0.2781
10517SOL    HW232746   2.749   0.817   5.835  2.5906  0.9358 -0.1141
10518SOL     OW32747   6.047   7.685   5.610 -0.5832 -0.7168  0.3235
10518SOL    HW132748   5.966   7.733   5.592 -0.4561 -0.7773 -0.4527
10518SOL    HW232749   6.077   7.655   5.524 -0.5418 -1.9978  0.7541
10519SOL     OW32750   6.913   1.480   0.476  0.3047  0.7039 -0.0412
10519SOL    HW132751   6.915   1.412   0.409 -0.6374  1.3498 -0.7599
10519SOL    HW232752   6.832   1.464   0.525 -0.2579  1.6550 -0.6252
10520SOL     OW32753   5.840   4.225   6.945  0.2301 -0.0485 -0.0458
10520SOL    HW132754   5.782   4.301   6.950  0.6661  0.3992 -1.4007
10520SOL    HW232755   5.847   4.206   6.852 -0.1358 -1.9883  0.2956
10521SOL     OW32756   4.833   4.146   2.468  0.2448  0.1897  0.7833
10521SOL    HW132757   4.752   4.097   2.461 -1.0416  2.2208  0.5456
10521SOL    HW232758   4.850   4.151   2.562  0.1323 -0.2835  0.8317
10522SOL     OW32759   7.810   1.499   3.486  0.0997  0.3417 -0.0290
10522SOL    HW132760   7.721   1.481   3.517  1.1324 -2.1996  1.7541
10522SOL    HW232761   7.801   1.504   3.390 -1.6639 -2.0930 -0.0878
10523SOL     OW32762   1.279   2.248   0.371  0.0746 -0.3106  0.6156
10523SOL    HW132763   1.328   2.327   0.350 -0.8270  0.1985  0.3415
10523SOL    HW232764   1.289   2.192   0.294 -1.2562  0.5587 -0.2299
10524SOL     OW32765   2.105   0.729   4.182 -0.0664 -0.3106 -0.1935
10524SOL    HW132766   2.114   0.812   4.133 -2.2860 -0.6923 -1.3803
10524SOL    HW232767   2.194   0.696   4.189  0.7737  1.7548 -0.4668
10525SOL     OW32768   3.534   2.792   4.952 -0.2951 -0.4504  0.9024
10525SOL    HW132769   3.606   2.736   4.926 -0.3651 -0.6065  1.0343
10525SOL    HW232770   3.571   2.880   4.958 -0.5586 -0.1796 -0.9324
10526SOL     OW32771   5.771   4.753   4.415 -0.2833  0.0313  0.3508
10526SOL    HW132772   5.696   4.791   4.458 -0.8882  1.1867 -1.5885
10526SOL    HW232773   5.842   4.816   4.429 -0.9186  1.2828 -1.6599
10527SOL     OW32774   5.592   6.661   2.310  0.3260  0.3023 -0.0600
10527SOL    HW132775   5.551   6.723   2.371 -0.5792 -0.5350  0.2004
10527SOL    HW232776   5.575   6.698   2.223 -0.2313  0.4060  0.0928
10528SOL     OW32777   7.832   5.690   2.694  0.3760 -0.4015 -0.6484
10528SOL    HW132778   7.847   5.674   2.787  4.1006 -0.9104 -1.1936
10528SOL    HW232779   7.739   5.670   2.682 -0.8790  1.8575  3.3164
10529SOL     OW32780   7.772   8.462   1.650  0.0309 -0.6462 -0.2033
10529SOL    HW132781   7.759   8.496   1.738 -2.1564  2.7524 -1.6250
10529SOL    HW232782   7.828   8.527   1.607  1.5572 -2.5363 -1.2019
10530SOL     OW32783   2.094   7.537   6.431 -0.3971 -0.1360  0.4682
10530SOL    HW132784   2.102   7.504   6.520  1.1068 -0.3164  0.2949
10530SOL    HW232785   2.003   7.519   6.407 -0.4314 -1.4371  1.4404
10531SOL     OW32786   7.615   0.139   3.671  0.0616 -0.2573  0.2751
10531SOL    HW132787   7.529   0.174   3.648 -0.0796  0.2876  1.5865
10531SOL    HW232788   7.650   0.201   3.735  0.9367 -1.1029  0.6332
10532SOL     OW32789   3.807   8.079   4.795 -0.2274  0.0463  0.2194
10532SOL    HW132790   3.732   8.094   4.737 -0.1451  0.9967  0.3437
10532SOL    HW232791   3.769   8.078   4.883 -0.1952 -0.2758  0.2324
10533SOL     OW32792   0.299   8.428   4.194 -0.2674  0.1371 -0.5075
10533SOL    HW132793   0.322   8.355   4.136  0.3133  0.2373 -0.4049
10533SOL    HW232794   0.378   8.481   4.199 -0.2797  0.0755  0.4599
10534SOL     OW32795   0.172   4.452   2.440  0.0922 -0.2457  0.2317
10534SOL    HW132796   0.228   4.529   2.452  0.9354 -1.1691  2.9240
10534SOL    HW232797   0.083   4.487   2.441  0.4847  0.9922 -1.8819
10535SOL     OW32798   6.198   2.142   7.968 -0.6163 -0.2442 -0.3553
10535SOL    HW132799   6.142   2.079   7.923  0.0783  1.1530 -3.3870
10535SOL    HW232800   6.179   2.226   7.926 -1.2523  1.6453  3.2768
10536SOL     OW32801   1.526   7.257   1.179  0.2722 -0.0777  0.7002
10536SOL    HW132802   1.486   7.344   1.187  1.8253  0.7596 -0.2651
10536SOL    HW232803   1.592   7.267   1.111  1.6075 -1.5986  1.7106
10537SOL     OW32804   0.474   0.780   1.669 -0.5848 -0.0827  0.1032
10537SOL    HW132805   0.465   0.864   1.625  0.1163 -1.0126 -1.9232
10537SOL    HW232806   0.387   0.761   1.704 -0.8494  1.2687  0.2033
10538SOL     OW32807   3.734   6.964   2.874 -0.3422 -0.2933 -0.9435
10538SOL    HW132808   3.704   6.943   2.962 -1.5796 -1.0668 -1.5207
10538SOL    HW232809   3.786   7.043   2.885  0.0239 -0.7030  0.5580
10539SOL     OW32810   2.998   7.577   4.645 -0.2354 -0.1861  0.2327
10539SOL    HW132811   2.970   7.494   4.684  0.8961 -1.1330 -0.8809
10539SOL    HW232812   2.936   7.642   4.680  0.3352 -1.0349  3.1037
10540SOL     OW32813   7.375   0.349   2.080 -0.3838  0.2406  0.3544
10540SOL    HW132814   7.350   0.257   2.081 -0.3408  0.2287  0.3366
10540SOL    HW232815   7.309   0.392   2.024 -0.7022  0.3071  0.7766
10541SOL     OW32816   7.559   2.050   6.608  0.7640  0.0793 -0.0159
10541SOL    HW132817   7.648   2.038   6.641  0.4240  0.5530  1.1278
10541SOL    HW232818   7.554   2.143   6.585  0.1714  0.3705  1.2086
10542SOL     OW32819   6.969   7.416   8.046  0.1647  0.4482 -0.2687
10542SOL    HW132820   6.890   7.466   8.069 -0.3313 -0.4128 -0.0599
10542SOL    HW232821   7.038   7.482   8.043 -0.7376  1.4074 -1.5000
10543SOL     OW32822   0.914   7.974   5.723  0.2746 -0.2064  0.3238
10543SOL    HW132823   0.863   7.933   5.793 -0.1585 -0.7301 -0.2908
10543SOL    HW232824   1.004   7.943   5.738  1.0843  2.8178  3.0484
10544SOL     OW32825   4.910   3.496   4.592 -0.0534 -0.2113 -0.3137
10544SOL    HW132826   4.832   3.463   4.548 -0.0524 -0.6283 -0.0052
10544SOL    HW232827   4.976   3.428   4.579  0.3079  0.2107 -0.7117
10545SOL     OW32828   4.269   8.294   5.595 -0.4597  0.5425 -0.1064
10545SOL    HW132829   4.298   8.204   5.610 -1.3793  0.3218  0.4295
10545SOL    HW232830   4.193   8.304   5.652 -0.6169  1.5288 -0.4770
10546SOL     OW32831   1.605   1.132   4.534 -0.3942 -0.4896 -0.2068
10546SOL    HW132832   1.526   1.147   4.482 -1.3872 -1.0322  1.1003
10546SOL    HW232833   1.629   1.219   4.566 -0.6691 -0.3710 -0.3149
10547SOL     OW32834   0.178   6.859   1.459  0.6088  0.7246  0.0553
10547SOL    HW132835   0.179   6.803   1.537 -0.1495  0.8617  0.1682
10547SOL    HW232836   0.106   6.826   1.407  1.8031 -0.0901 -1.1402
10548SOL     OW32837   7.387   2.786   6.976  0.1454  0.1590 -0.4442
10548SOL    HW132838   7.354   2.701   7.004 -2.4602  1.1076 -0.3655
10548SOL    HW232839   7.412   2.830   7.057  1.1418 -0.3513 -0.4553
10549SOL     OW32840   5.963   1.406   6.829 -0.2076  0.1217  0.0919
10549SOL    HW132841   5.903   1.363   6.767 -0.2906 -0.3410  0.4865
10549SOL    HW232842   6.025   1.452   6.773  0.3068 -1.0863 -0.3791
10550SOL     OW32843   5.020   1.348   0.920 -0.9711 -0.2743 -0.5323
10550SOL    HW132844   5.006   1.365   0.827 -3.7390 -2.3888 -0.6365
10550SOL    HW232845   5.020   1.253   0.927 -1.7061 -0.1781  1.6991
10551SOL     OW32846   7.326   5.572   6.811 -1.0148  0.4441 -0.9337
10551SOL    HW132847   7.301   5.635   6.877  0.1634 -0.4818  0.4789
10551SOL    HW232848   7.405   5.609   6.770  0.5933 -0.6829  0.9424
10552SOL     OW32849   6.711   8.343   5.320  0.0991  0.7427 -0.0757
10552SOL    HW132850   6.619   8.354   5.344  0.4077 -1.7799  2.8769
10552SOL    HW232851   6.758   8.410   5.370  0.0275  0.7525 -0.0217
10553SOL     OW32852   3.468   4.518   6.842  0.4382  0.2416 -0.0080
10553SOL    HW132853   3.437   4.442   6.793 -0.3056 -0.0697  0.9100
10553SOL    HW232854   3.421   4.593   6.804  0.1375  0.0495 -0.0176
10554SOL     OW32855   7.860   7.574   7.293  0.5118  0.2321  0.2871
10554SOL    HW132856   7.818   7.570   7.379  1.1908 -0.4297  0.5995
10554SOL    HW232857   7.839   7.490   7.252 -0.4592  0.8545 -0.5138
10555SOL     OW32858   1.047   4.645   5.979  0.3507  0.0671 -0.0738
10555SOL    HW132859   1.109   4.647   6.051  1.2191  1.2325 -0.8040
10555SOL    HW232860   0.973   4.698   6.009  0.6325  0.4002  0.0420
10556SOL     OW32861   4.005   0.048   3.230 -0.6135  0.1773  0.3228
10556SOL    HW132862   4.039   0.121   3.282 -1.5361  0.9679 -0.1606
10556SOL    HW232863   4.078   0.025   3.172 -0.7744  1.7178 -0.5620
10557SOL     OW32864   5.521   6.540   8.058  0.8081 -0.1070  0.0014
10557SOL    HW132865   5.572   6.476   8.009  0.4042  0.3451 -1.0291
10557SOL    HW232866   5.490   6.491   8.135  1.4909 -0.8044 -0.1529
10558SOL     OW32867   2.051   7.529   5.292 -0.1466 -0.0012 -0.0262
10558SOL    HW132868   1.992   7.456   5.275  0.7148 -0.5761 -0.6676
10558SOL    HW232869   2.003   7.587   5.351 -1.2448 -0.5604 -0.3622
10559SOL     OW32870   2.642   8.349   7.203  0.2174 -0.5913  0.5584
10559SOL    HW132871   2.690   8.429   7.186  0.3234 -0.4435  1.5352
10559SOL    HW232872   2.697   8.300   7.264 -0.3186 -0.9458  0.7656
10560SOL     OW32873   0.202   0.714   3.237 -0.6109  0.2226 -0.1693
10560SOL    HW132874   0.165   0.668   3.162  0.3858  1.3798 -1.4265
10560SOL    HW232875   0.127   0.741   3.289 -1.2720 -1.5159 -0.1472
10561SOL     OW32876   4.874   5.232   5.792  0.1185 -0.0729 -0.2576
10561SOL    HW132877   4.813   5.196   5.728 -1.5562  0.5295  0.9176
10561SOL    HW232878   4.956   5.186   5.776  0.2575  1.1038 -3.7993
10562SOL     OW32879   4.773   7.999   2.404  0.3020  0.2400 -0.0604
10562SOL    HW132880   4.856   8.015   2.448  0.0060 -0.1029  0.6227
10562SOL    HW232881   4.754   8.081   2.357  1.3852  0.0703 -0.8325
10563SOL     OW32882   4.993   8.504   8.089 -0.0849  0.3304 -0.2438
10563SOL    HW132883   5.019   8.587   8.048  1.4005 -0.7645 -1.6386
10563SOL    HW232884   4.911   8.481   8.046  1.3005 -0.6575 -2.5539
10564SOL     OW32885   0.294   1.422   1.800 -0.2227  0.7286 -0.3674
10564SOL    HW132886   0.222   1.377   1.845  1.1506 -1.4074 -0.1716
10564SOL    HW232887   0.305   1.504   1.849  0.0178 -0.6911  2.1500
10565SOL     OW32888   4.160   6.775   2.057  0.0929  0.2294  0.5274
10565SOL    HW132889   4.245   6.808   2.086  1.2325 -1.2910 -0.9895
10565SOL    HW232890   4.143   6.699   2.113 -0.5611  0.8153  1.1668
10566SOL     OW32891   0.927   5.035   4.696 -0.5578 -0.0664  0.1596
10566SOL    HW132892   0.943   4.942   4.710  0.2443  0.3568  2.5245
10566SOL    HW232893   0.840   5.051   4.731  0.1688  0.4235  1.8409
10567SOL     OW32894   1.255   1.965   4.445 -0.2183 -0.0625 -0.2736
10567SOL    HW132895   1.317   1.898   4.475  0.9614  1.0477 -0.1066
10567SOL    HW232896   1.203   1.922   4.377  0.2969 -1.2273  0.0456
10568SOL     OW32897   2.145   1.345   5.808  0.3273  0.4101 -0.0661
10568SOL    HW132898   2.222   1.331   5.863 -0.1673  1.7107  1.0132
10568SOL    HW232899   2.178   1.345   5.718  1.1314 -1.9653  0.1649
10569SOL     OW32900   1.266   4.192   5.120 -0.2834 -0.1360 -0.3458
10569SOL    HW132901   1.301   4.201   5.209 -1.8928 -1.3511  0.4735
10569SOL    HW232902   1.183   4.241   5.122 -0.1891  0.0813 -1.2849
10570SOL     OW32903   3.765   0.292   7.462  0.0809  0.6619  0.6355
10570SOL    HW132904   3.739   0.325   7.548  0.1384  1.5640  0.3098
10570SOL    HW232905   3.858   0.273   7.470  0.0766  0.6981  0.7769
10571SOL     OW32906   0.926   2.041   1.871  0.5366  0.4293 -0.3586
10571SOL    HW132907   0.839   2.022   1.907 -0.2828  0.6410 -2.1094
10571SOL    HW232908   0.941   1.971   1.808  1.2177  0.9353 -0.7611
10572SOL     OW32909   0.799   1.035   0.241 -0.5254 -0.6423  0.1211
10572SOL    HW132910   0.716   1.079   0.221 -0.8014 -0.4625  1.5608
10572SOL    HW232911   0.776   0.969   0.306  0.5069 -0.3457  0.8016
10573SOL     OW32912   7.605   2.698   7.194  0.3713 -0.6993 -0.1559
10573SOL    HW132913   7.654   2.622   7.225  0.9191 -0.6232 -0.8329
10573SOL    HW232914   7.656   2.774   7.223  0.4698 -0.6127 -0.5542
10574SOL     OW32915   1.550   1.330   2.624 -0.0559 -0.1496  0.0318
10574SOL    HW132916   1.622   1.343   2.563 -0.4119  0.4523 -0.2701
10574SOL    HW232917   1.480   1.291   2.572 -0.0877 -0.3641  0.2325
10575SOL     OW32918   6.592   6.401   4.707 -0.4045 -0.7153 -0.4529
10575SOL    HW132919   6.544   6.417   4.626  0.2156  0.0834 -0.6758
10575SOL    HW232920   6.674   6.360   4.679  1.1505  2.2099 -0.5866
10576SOL     OW32921   0.675   1.469   4.159  0.7576  0.0180 -0.2863
10576SOL    HW132922   0.694   1.480   4.252  1.9901  0.4415 -0.5666
10576SOL    HW232923   0.580   1.458   4.155  0.6776  0.0766  1.0074
10577SOL     OW32924   5.254   5.292   1.421 -0.0099 -0.5462  0.3521
10577SOL    HW132925   5.311   5.253   1.354  0.1196 -0.5718  0.4764
10577SOL    HW232926   5.298   5.273   1.504  0.2099  0.1255  0.3924
10578SOL     OW32927   0.806   8.543   2.418 -0.3250  0.2927  0.1289
10578SOL    HW132928   0.749   8.538   2.494 -0.9671 -0.4921 -0.3790
10578SOL    HW232929   0.752   8.511   2.345  0.4119  0.5889 -0.5692
10579SOL     OW32930   1.446   0.693   6.851  0.1420 -0.4821  0.4474
10579SOL    HW132931   1.511   0.648   6.905 -1.1159 -0.8860  1.6969
10579SOL    HW232932   1.468   0.670   6.761  2.8334  0.9038  0.6438
10580SOL     OW32933   5.179   3.656   6.470  1.1857 -0.1622 -0.3199
10580SOL    HW132934   5.248   3.616   6.523 -0.7513 -1.8129  1.1296
10580SOL    HW232935   5.132   3.712   6.531 -1.9897 -3.2138  0.3439
10581SOL     OW32936   1.588   2.856   0.958  0.3631  0.1176 -0.1429
10581SOL    HW132937   1.663   2.827   0.906 -0.2941 -1.1105 -0.4331
10581SOL    HW232938   1.518   2.794   0.937 -0.3961  0.5436  1.0125
10582SOL     OW32939   6.330   6.020   7.325 -1.0594  0.7251 -0.1930
10582SOL    HW132940   6.397   6.088   7.330 -0.7057  0.3125  0.8237
10582SOL    HW232941   6.314   6.009   7.231  2.3023 -1.1444 -0.6858
10583SOL     OW32942   5.426   2.563   7.280 -0.7075 -0.2101 -0.4278
10583SOL    HW132943   5.356   2.518   7.233 -0.7925 -0.1876 -0.3218
10583SOL    HW232944   5.482   2.492   7.312 -1.3175 -0.2949  0.4998
10584SOL     OW32945   6.390   3.088   7.950 -0.4422  0.2003 -0.5487
10584SOL    HW132946   6.310   3.081   7.899 -0.6825 -1.3401 -0.0277
10584SOL    HW232947   6.460   3.082   7.886 -0.6984  2.1664 -1.0774
10585SOL     OW32948   2.484   3.425   3.093 -0.0981  0.0659  0.1067
10585SOL    HW132949   2.512   3.375   3.016  0.7737  0.4907  0.1319
10585SOL    HW232950   2.400   3.387   3.118 -0.6373  0.2298 -1.3526
10586SOL     OW32951   5.008   0.752   6.685  0.4832 -0.1806 -0.3797
10586SOL    HW132952   4.959   0.686   6.637  0.0688  0.8503 -1.4112
10586SOL    HW232953   5.098   0.744   6.654  0.1806  0.6209 -1.5443
10587SOL     OW32954   6.615   6.187   6.229  0.1989 -0.3303  0.2631
10587SOL    HW132955   6.541   6.131   6.251 -0.2227  1.2160  3.2505
10587SOL    HW232956   6.678   6.173   6.299  0.9894  1.3655 -0.0658
10588SOL     OW32957   1.377   7.891   0.590  0.4803 -0.3568 -0.4873
10588SOL    HW132958   1.381   7.974   0.543  1.0708 -1.3184 -2.2263
10588SOL    HW232959   1.375   7.916   0.683 -0.5254  1.5998 -0.9808
10589SOL     OW32960   6.077   6.334   1.442 -0.7908 -0.8273  0.8254
10589SOL    HW132961   6.036   6.257   1.480 -2.8217 -0.1871  0.0213
10589SOL    HW232962   6.056   6.405   1.502 -0.6958 -0.5215  0.5049
10590SOL     OW32963   7.141   3.030   2.642  0.3119  0.0695  0.1526
10590SOL    HW132964   7.144   3.025   2.737  1.1565 -0.4201  0.1023
10590SOL    HW232965   7.141   2.939   2.612  0.2461  0.2194 -0.3194
10591SOL     OW32966   7.921   3.118   3.347  0.0080  0.1441 -0.1339
10591SOL    HW132967   7.998   3.149   3.394  0.2622 -1.1630  0.3582
10591SOL    HW232968   7.912   3.177   3.272  1.6413  0.1516 -0.3521
10592SOL     OW32969   5.519   4.872   3.325 -0.6217 -0.3327  0.1190
10592SOL    HW132970   5.444   4.920   3.289 -0.1573 -0.2422 -0.7624
10592SOL    HW232971   5.493   4.780   3.322 -1.3147 -0.1889  1.3268
10593SOL     OW32972   0.028   7.591   1.183  0.5013 -0.1952 -0.1111
10593SOL    HW132973  -0.060   7.555   1.168  0.2162 -0.6255  2.2369
10593SOL    HW232974   0.038   7.656   1.114 -1.9953  0.4272 -0.0099
10594SOL     OW32975   6.022   5.008   0.287 -0.5635  0.8051  0.2509
10594SOL    HW132976   5.997   5.009   0.195 -0.9911 -0.9765  0.3151
10594SOL    HW232977   5.942   5.031   0.335 -0.5472  0.9243  0.2219
10595SOL     OW32978   6.410   2.781   1.008 -0.2909 -0.6850  0.3243
10595SOL    HW132979   6.398   2.699   0.959 -0.0230 -0.5928  0.1023
10595SOL    HW232980   6.480   2.826   0.961 -0.6303 -0.2003  0.2827
10596SOL     OW32981   3.393   6.666   0.444 -0.2989 -0.3359  0.6501
10596SOL    HW132982   3.380   6.761   0.434 -2.2479 -0.4556  1.5442
10596SOL    HW232983   3.415   6.655   0.536  1.4364 -0.6568  0.2277
10597SOL     OW32984   3.051   6.308   7.103  0.3121 -0.2486  0.3914
10597SOL    HW132985   3.031   6.222   7.067 -1.1088  0.2532 -0.0630
10597SOL    HW232986   3.053   6.295   7.198 -2.5508 -0.2946  0.5107
10598SOL     OW32987   7.209   7.854   3.213  0.6598  0.0154  0.3062
10598SOL    HW132988   7.140   7.907   3.173 -1.5908 -2.9590 -0.1344
10598SOL    HW232989   7.163   7.799   3.276  2.8736 -1.2716  0.9109
10599SOL     OW32990   2.361   0.144   1.652  0.2633 -0.0531  0.2502
10599SOL    HW132991   2.421   0.105   1.589  1.7063  2.1392  0.1437
10599SOL    HW232992   2.353   0.235   1.624 -0.3060  0.5977  2.3169
10600SOL     OW32993   7.044   1.738   5.273 -0.6809  0.0863  0.3571
10600SOL    HW132994   6.962   1.701   5.306 -1.2404 -0.3968 -1.4726
10600SOL    HW232995   7.022   1.827   5.247 -0.8978 -0.3539 -1.0379
10601SOL     OW32996   4.725   7.837   3.572  0.2285  0.2770 -0.1498
10601SOL    HW132997   4.729   7.890   3.493 -1.1607 -0.2085 -0.5877
10601SOL    HW232998   4.719   7.900   3.644 -0.2931  0.7220 -0.5787
10602SOL     OW32999   5.821   5.111   3.835  0.3274  0.0658  0.1410
10602SOL    HW133000   5.812   5.016   3.845  0.9361  0.0799  0.9687
10602SOL    HW233001   5.914   5.124   3.816  0.5623  0.5827  1.4837
10603SOL     OW33002   2.974   1.306   1.954 -0.2199  0.1562  0.3843
10603SOL    HW133003   2.972   1.401   1.940 -0.4632  0.2479  1.0263
10603SOL    HW233004   2.945   1.294   2.044  1.4750 -0.4196  0.8923
10604SOL     OW33005   6.894   6.471   3.254  0.1075  0.0448  0.3796
10604SOL    HW133006   6.951   6.546   3.272  1.5118 -0.7867 -0.3718
10604SOL    HW233007   6.874   6.478   3.161 -0.9057  0.2369  0.6052
10605SOL     OW33008   2.972   1.755   1.178 -0.3544  0.2922 -0.6753
10605SOL    HW133009   2.966   1.751   1.274 -1.4758  1.0164 -0.6988
10605SOL    HW233010   2.955   1.847   1.157 -1.5150 -0.1172 -1.6534
10606SOL     OW33011   0.591   5.203   0.703  1.0355  0.4262 -0.8160
10606SOL    HW133012   0.541   5.178   0.781 -1.2827  2.5871 -1.4961
10606SOL    HW233013   0.554   5.150   0.632  0.2089  1.4576 -1.1758
10607SOL     OW33014   6.327   4.425   5.306  0.5365 -0.1191 -0.6044
10607SOL    HW133015   6.341   4.388   5.392 -0.6437 -1.3610 -0.8997
10607SOL    HW233016   6.311   4.518   5.322  2.6987  0.1620  0.2413
10608SOL     OW33017   1.464   5.260   3.012 -0.2655  0.8201  0.1211
10608SOL    HW133018   1.497   5.304   2.934 -0.1964  2.0130  0.7865
10608SOL    HW233019   1.465   5.328   3.080 -0.2627 -0.1919  1.1755
10609SOL     OW33020   7.069   7.063   4.257  0.2291  0.6307  0.2817
10609SOL    HW133021   7.142   7.053   4.317 -0.8462  0.4662  1.6089
10609SOL    HW233022   7.109   7.068   4.170  1.6801 -4.8081  0.2445
10610SOL     OW33023   5.913   7.479   4.036 -0.5512 -0.3087 -0.4333
10610SOL    HW133024   5.952   7.566   4.044 -1.9588  0.2653  0.6963
10610SOL    HW233025   5.819   7.495   4.035 -0.8299 -1.7964 -0.6599
10611SOL     OW33026   8.056   1.505   2.962  0.5385  0.3408 -0.4497
10611SOL    HW133027   8.060   1.586   2.912  2.3942  0.7590  0.2946
10611SOL    HW233028   8.147   1.479   2.975  0.0859 -3.5033 -3.1239
10612SOL     OW33029   8.432   2.383   1.574  0.4018  0.1786  0.2327
10612SOL    HW133030   8.457   2.440   1.647 -0.5191  4.6756 -2.6191
10612SOL    HW233031   8.345   2.411   1.549  0.8668 -0.7551 -2.9239
10613SOL     OW33032   0.730   3.377   4.279 -0.2126  0.0825  0.0565
10613SOL    HW133033   0.785   3.373   4.200  0.5167  0.5349  0.5310
10613SOL    HW233034   0.738   3.290   4.318  0.4166  0.2386  0.2839
10614SOL     OW33035   2.180   7.751   2.644 -0.4852  0.2305 -0.4901
10614SOL    HW133036   2.149   7.738   2.733 -0.2241 -0.2190 -0.4626
10614SOL    HW233037   2.109   7.799   2.601  0.0196  1.8025  0.3524
10615SOL     OW33038   8.515   0.981   5.465 -0.2626  0.5553 -0.3835
10615SOL    HW133039   8.449   0.961   5.400 -0.0072  2.5762 -1.3298
10615SOL    HW233040   8.598   0.958   5.423 -0.2257 -0.5372  0.2335
10616SOL     OW33041   6.332   3.678   5.623 -0.1641  0.5809 -0.3871
10616SOL    HW133042   6.310   3.586   5.612  0.4283  0.2466  0.9979
10616SOL    HW233043   6.250   3.725   5.605 -0.3691 -0.1715 -1.4760
10617SOL     OW33044   5.025   5.802   0.348  0.2209  0.2148  0.5399
10617SOL    HW133045   4.967   5.875   0.370 -1.7122 -0.4621 -1.8195
10617SOL    HW233046   5.113   5.839   0.355 -0.4260  1.4393  3.7678
10618SOL     OW33047   2.932   2.779   0.058  0.2438 -0.3456  0.5466
10618SOL    HW133048   2.882   2.764  -0.022  0.2058 -0.9460  0.6789
10618SOL    HW233049   2.932   2.694   0.103 -0.2228  0.1183  1.4597
10619SOL     OW33050   5.720   0.040   3.447  0.3120 -0.7174  0.1539
10619SOL    HW133051   5.704   0.016   3.538  0.8669 -0.2721  0.3738
10619SOL    HW233052   5.811   0.015   3.431  0.9347  1.2243  0.4120
10620SOL     OW33053   0.195   3.137   5.707 -0.4147 -0.3631  0.3827
10620SOL    HW133054   0.271   3.192   5.686 -0.2912 -0.2567  1.1043
10620SOL    HW233055   0.191   3.136   5.802 -1.9040  0.4397  0.3585
10621SOL     OW33056   7.272   4.078   4.602 -0.0226 -0.5088 -0.2302
10621SOL    HW133057   7.259   3.996   4.648  0.0246  0.2115  1.1313
10621SOL    HW233058   7.186   4.098   4.564 -0.3753 -0.5596  0.5193
10622SOL     OW33059   2.287   5.762   0.364 -0.0028  0.2636  0.1379
10622SOL    HW133060   2.327   5.725   0.443  1.3643  0.3620 -0.4765
10622SOL    HW233061   2.194   5.772   0.386  0.2885 -0.0522  1.5932
10623SOL     OW33062   7.880   3.371   8.573 -0.0628 -0.7527 -0.0199
10623SOL    HW133063   7.871   3.329   8.488 -1.2581 -3.0765  1.1612
10623SOL    HW233064   7.948   3.321   8.619  2.1215  1.7733 -0.2552
10624SOL     OW33065   5.251   0.556   1.688 -0.6242  0.0173  0.3522
10624SOL    HW133066   5.212   0.563   1.601  0.5855 -2.0959 -0.4313
10624SOL    HW233067   5.203   0.486   1.730 -1.3398  1.1691  1.5220
10625SOL     OW33068   1.745   3.585   0.082 -0.1866 -0.0188 -0.7709
10625SOL    HW133069   1.652   3.563   0.077 -0.1994  0.1817 -1.5566
10625SOL    HW233070   1.763   3.592   0.176 -1.1824  0.9015 -0.6292
10626SOL     OW33071   1.520   4.270   2.400  0.0460 -0.3126  0.6880
10626SOL    HW133072   1.528   4.315   2.316 -1.2706 -0.6072  0.3927
10626SOL    HW233073   1.608   4.274   2.437  0.2318  1.5063  0.1651
10627SOL     OW33074   1.175   5.268   4.739  0.2809 -0.4295 -0.5299
10627SOL    HW133075   1.206   5.353   4.770  1.3693 -0.1905 -2.1860
10627SOL    HW233076   1.252   5.211   4.742 -0.3929 -1.3449  0.3887
10628SOL     OW33077   1.176   2.132   6.100 -0.7049 -0.3070  0.4664
10628SOL    HW133078   1.254   2.076   6.105 -0.4380  0.0610  0.4170
10628SOL    HW233079   1.113   2.079   6.050 -1.0822 -1.2809  1.9082
10629SOL     OW33080   8.006   7.360   2.886  0.3780 -0.2497  0.1159
10629SOL    HW133081   7.916   7.385   2.867  0.6069  1.6907  1.4220
10629SOL    HW233082   7.999   7.272   2.923 -0.8132 -0.6728 -1.0264
10630SOL     OW33083   6.913   7.391   6.699  0.0482  0.0079  0.1118
10630SOL    HW133084   6.846   7.458   6.711 -1.7174 -1.7332  0.3547
10630SOL    HW233085   6.909   7.371   6.606  0.1733 -0.1675  0.1451
10631SOL     OW33086   6.521   1.030   2.530 -0.1811  0.2855  0.5736
10631SOL    HW133087   6.491   1.117   2.558  1.1733  0.2826  2.2223
10631SOL    HW233088   6.595   1.011   2.588 -0.6450 -2.1064  0.4647
10632SOL     OW33089   1.849   8.584   7.331  0.1326 -0.3224  0.7570
10632SOL    HW133090   1.798   8.640   7.272 -1.2385 -0.9937  1.2490
10632SOL    HW233091   1.933   8.573   7.288  0.6719  2.5567  0.8886
10633SOL     OW33092   7.922   8.209   7.583  0.4976 -0.2821  0.2365
10633SOL    HW133093   7.995   8.165   7.540  0.5736  0.4920 -0.4539
10633SOL    HW233094   7.964   8.278   7.635  0.2010  1.9259 -2.2122
10634SOL     OW33095   6.819   3.478   3.389 -0.0497 -0.1476 -0.3283
10634SOL    HW133096   6.864   3.551   3.346 -2.6138  1.2139 -0.8957
10634SOL    HW233097   6.837   3.403   3.333  1.7817  0.2204 -0.3019
10635SOL     OW33098   8.354   0.331   6.191 -0.0223 -0.1597  0.1190
10635SOL    HW133099   8.372   0.239   6.175 -0.7455 -0.0649 -1.4318
10635SOL    HW233100   8.265   0.345   6.157 -0.1118  1.0044  0.7591
10636SOL     OW33101   2.725   2.753   6.002  0.0110 -0.4996 -0.5877
10636SOL    HW133102   2.690   2.806   6.073  1.0117 -0.5064 -0.0737
10636SOL    HW233103   2.809   2.722   6.035  0.1610 -1.0929 -1.5034
10637SOL     OW33104   1.741   4.579   3.214  0.3084  0.1186  0.2595
10637SOL    HW133105   1.819   4.634   3.220  1.6715 -1.4599 -1.7084
10637SOL    HW233106   1.775   4.492   3.196 -1.8924 -0.9388  0.8968
10638SOL     OW33107   0.412   2.577   7.387 -0.1029  0.5072 -0.5004
10638SOL    HW133108   0.428   2.664   7.351  0.3012  1.3204  1.5324
10638SOL    HW233109   0.338   2.589   7.447  0.4033 -0.3887  0.3314
10639SOL     OW33110   0.400   0.180   2.700  0.3463 -1.2074  0.4128
10639SOL    HW133111   0.306   0.159   2.703 -0.2894  1.2151 -0.1051
10639SOL    HW233112   0.436   0.140   2.779 -1.4417 -0.8955  1.4485
10640SOL     OW33113   0.488   5.430   0.205  0.2126 -0.6300 -0.5907
10640SOL    HW133114   0.456   5.510   0.247  0.7126 -0.3815 -0.6672
10640SOL    HW233115   0.415   5.369   0.210  1.0364 -1.5576  3.0267
10641SOL     OW33116   6.857   6.956   7.404 -0.2909 -0.2063 -0.1877
10641SOL    HW133117   6.891   6.945   7.315  0.4225 -1.3819  0.2027
10641SOL    HW233118   6.795   6.884   7.415  0.1733 -0.5029  0.5112
10642SOL     OW33119   5.045   1.756   2.063  0.1411  0.2428  0.6698
10642SOL    HW133120   4.960   1.794   2.040  0.6526  0.8032 -0.3665
10642SOL    HW233121   5.028   1.707   2.143 -1.4099 -0.5137 -0.0637
10643SOL     OW33122   4.808   4.750   2.921 -0.1543  0.2619  0.4795
10643SOL    HW133123   4.744   4.776   2.854 -0.9489  0.3883  1.2677
10643SOL    HW233124   4.761   4.761   3.004  0.8033  0.0638  1.0554
10644SOL     OW33125   3.688   2.370   6.403  0.7227  0.6311  0.3786
10644SOL    HW133126   3.651   2.282   6.398 -0.3191  1.1060 -2.4390
10644SOL    HW233127   3.619   2.422   6.445 -0.0766  0.6612 -0.8924
10645SOL     OW33128   5.196   1.335   1.627 -0.1492 -0.6031 -0.1475
10645SOL    HW133129   5.205   1.244   1.655 -0.7826 -0.5882  0.1365
10645SOL    HW233130   5.283   1.359   1.595  0.4022 -0.8549  1.1148
10646SOL     OW33131   4.651   7.777   5.815  0.2797 -0.4341  0.1595
10646SOL    HW133132   4.692   7.691   5.815 -0.9361 -1.0717  2.2754
10646SOL    HW233133   4.722   7.837   5.837  0.7281 -1.1374  0.6668
10647SOL     OW33134   6.997   3.018   3.179  0.5228  0.1597 -0.2405
10647SOL    HW133135   7.020   2.969   3.258  1.4993 -0.9678 -1.1811
10647SOL    HW233136   7.006   2.954   3.108  0.0723  1.2494 -1.3123
10648SOL     OW33137   2.343   4.175   1.973 -1.1286 -0.1859 -0.3094
10648SOL    HW133138   2.289   4.174   1.893  2.2907  1.3420 -2.9127
10648SOL    HW233139   2.327   4.262   2.011  0.4636  0.9413 -1.9936
10649SOL     OW33140   1.459   7.496   2.060  0.0722 -0.2467  0.3465
10649SOL    HW133141   1.482   7.492   1.967 -0.0815  1.0414  0.2405
10649SOL    HW233142   1.388   7.432   2.070 -0.5093  0.2245 -0.6129
10650SOL     OW33143   6.328   3.300   7.251 -0.3989 -0.5557  0.0435
10650SOL    HW133144   6.336   3.393   7.273  0.5676 -0.6679  0.2269
10650SOL    HW233145   6.297   3.300   7.160  0.0915 -0.0385 -0.1347
10651SOL     OW33146   5.885   0.030   1.930 -0.0815 -0.1692 -0.1227
10651SOL    HW133147   5.962   0.086   1.938 -0.3861  0.2299  0.0651
10651SOL    HW233148   5.920  -0.059   1.927  0.3192 -0.1025  1.4738
10652SOL     OW33149   4.424   8.353   1.121 -0.0395 -0.1299  0.3222
10652SOL    HW133150   4.514   8.367   1.092 -0.8639  2.0510 -1.5094
10652SOL    HW233151   4.418   8.400   1.204  0.4145  0.0461  0.2597
10653SOL     OW33152   6.348   7.703   3.636 -0.5001 -0.5827 -0.0387
10653SOL    HW133153   6.270   7.758   3.640  0.0994  0.2308  0.7573
10653SOL    HW233154   6.334   7.648   3.559 -1.8605 -0.4639  0.0881
10654SOL     OW33155   1.161   7.910   0.072 -0.7360 -0.1868  0.0203
10654SOL    HW133156   1.223   7.955   0.130  1.7181  0.1702 -2.6464
10654SOL    HW233157   1.180   7.817   0.085  0.6278 -0.0767 -0.9255
10655SOL     OW33158   8.370   7.738   2.642  0.2805 -0.2192  0.3828
10655SOL    HW133159   8.397   7.775   2.558  1.8184  0.5221  1.1758
10655SOL    HW233160   8.347   7.647   2.621  2.9519 -0.7777 -0.4886
10656SOL     OW33161   2.996   6.620   3.907  0.5401 -0.4370  0.2731
10656SOL    HW133162   2.945   6.701   3.903  1.1441 -0.0776 -0.7820
10656SOL    HW233163   2.977   6.576   3.823  0.4871 -1.2285  0.6872
10657SOL     OW33164   7.847   3.471   2.658 -0.2525 -0.1835  0.2770
10657SOL    HW133165   7.834   3.557   2.698  1.2366  0.9877 -1.6060
10657SOL    HW233166   7.941   3.454   2.667 -0.6438 -2.0914  1.4316
10658SOL     OW33167   3.194   4.897   4.123  0.2025  0.5405 -0.0109
10658SOL    HW133168   3.147   4.829   4.074  0.2225  1.1987 -0.9576
10658SOL    HW233169   3.274   4.912   4.074  1.8286 -1.0806  1.9768
10659SOL     OW33170   5.179   1.953   0.083  1.1046  0.2123  0.0016
10659SOL    HW133171   5.094   1.916   0.109  0.6631  1.2657  0.1111
10659SOL    HW233172   5.157   2.036   0.040  2.1542  1.4225  1.6532
10660SOL     OW33173   0.546   0.851   1.207  0.2913  0.3095 -0.8892
10660SOL    HW133174   0.605   0.906   1.259 -1.0399  0.9042  0.0503
10660SOL    HW233175   0.491   0.808   1.272 -1.8741  1.5899 -1.7913
10661SOL     OW33176   1.760   7.893   7.958  0.1348  0.4028 -0.4878
10661SOL    HW133177   1.707   7.871   7.881  0.0991  1.2374 -0.7091
10661SOL    HW233178   1.721   7.974   7.991  1.0018  0.7813 -0.3876
10662SOL     OW33179   3.801   3.766   5.798  0.9989  0.0097 -0.6535
10662SOL    HW133180   3.725   3.815   5.766  1.2163  1.2392  0.5723
10662SOL    HW233181   3.875   3.803   5.749  0.8711 -0.9256 -1.5776
10663SOL     OW33182   7.965   2.712   4.048  0.4719 -0.1849 -0.3924
10663SOL    HW133183   7.894   2.774   4.064 -1.9555 -2.3278 -2.0356
10663SOL    HW233184   7.968   2.657   4.127 -1.9372 -2.0152 -1.4658
10664SOL     OW33185   7.985   7.567   0.066  0.2362  0.1197 -0.6776
10664SOL    HW133186   7.945   7.485   0.037  1.2295 -0.7328  0.2846
10664SOL    HW233187   8.044   7.541   0.137  0.1591  1.7359  0.0261
10665SOL     OW33188   1.254   5.769   6.616 -0.0212 -0.2340  0.1481
10665SOL    HW133189   1.254   5.715   6.537 -1.7285 -0.8703  0.5478
10665SOL    HW233190   1.287   5.712   6.685  0.6557  0.0592  0.0747
10666SOL     OW33191   5.954   3.921   8.364  0.4104  0.0952  0.3472
10666SOL    HW133192   5.916   3.835   8.383 -1.4904  0.5978 -0.8296
10666SOL    HW233193   5.964   3.963   8.449 -0.2238 -0.6867  0.8187
10667SOL     OW33194   0.555   2.200   0.398 -0.5318  0.0800 -0.1027
10667SOL    HW133195   0.521   2.118   0.362 -0.9248 -0.1041  0.6521
10667SOL    HW233196   0.642   2.210   0.358 -0.7677 -0.3377 -0.7357
10668SOL     OW33197   4.727   2.707   2.973  0.3587  0.4835  0.6664
10668SOL    HW133198   4.715   2.757   3.054  0.1980  2.6918 -0.6429
10668SOL    HW233199   4.679   2.625   2.989 -2.1547  2.0423  1.7880
10669SOL     OW33200   1.520   7.613   3.816  0.4335  0.2548  0.4373
10669SOL    HW133201   1.462   7.540   3.791  0.7035  0.5420 -1.1568
10669SOL    HW233202   1.607   7.572   3.822  0.4785  0.3113  0.1950
10670SOL     OW33203   7.637   0.563   3.088  0.2140  0.5863 -0.1955
10670SOL    HW133204   7.546   0.549   3.116 -0.2464  1.3039 -1.2360
10670SOL    HW233205   7.638   0.653   3.056  1.1661  0.4148 -0.6806
10671SOL     OW33206   3.322   6.582   5.550 -0.6427  0.0515  0.5346
10671SOL    HW133207   3.280   6.514   5.603 -2.1905 -0.3513 -1.0829
10671SOL    HW233208   3.343   6.537   5.467 -1.5536  1.4775 -0.5109
10672SOL     OW33209   4.215   4.333   4.185  0.3823  0.0914  0.5634
10672SOL    HW133210   4.212   4.260   4.123 -1.6781  0.2552  0.4049
10672SOL    HW233211   4.134   4.382   4.169  1.6946  2.4562  0.6402
10673SOL     OW33212   0.411   3.386   8.113 -0.4299 -0.4837  0.4550
10673SOL    HW133213   0.389   3.342   8.031 -5.0970  1.6200  0.2358
10673SOL    HW233214   0.465   3.461   8.088 -2.7714  0.8104 -1.0198
10674SOL     OW33215   0.406   0.321   7.856 -0.0920 -0.5380 -0.3798
10674SOL    HW133216   0.456   0.242   7.874 -1.1596 -0.4749  3.9050
10674SOL    HW233217   0.449   0.389   7.909 -2.3492  0.3915  0.3698
10675SOL     OW33218   1.767   0.262   4.454  0.3310 -0.2353  0.3194
10675SOL    HW133219   1.727   0.349   4.449  0.4870 -0.1655  0.2908
10675SOL    HW233220   1.838   0.272   4.517 -0.1870 -0.5502  0.9649
10676SOL     OW33221   1.593   3.596   1.884 -0.0199 -0.0047  0.3757
10676SOL    HW133222   1.646   3.558   1.954 -0.0115  1.4196  1.1754
10676SOL    HW233223   1.594   3.690   1.902 -1.3199  0.2259 -0.6536
10677SOL     OW33224   6.560   1.126   0.326 -0.5961  0.0728  0.1421
10677SOL    HW133225   6.546   1.188   0.398 -0.9306 -0.5759  0.6554
10677SOL    HW233226   6.551   1.179   0.247 -1.5410  0.5700  0.5523
10678SOL     OW33227   3.714   0.031   2.392 -0.2584 -0.1690  0.4354
10678SOL    HW133228   3.688  -0.038   2.452 -0.4968 -1.1886 -0.8124
10678SOL    HW233229   3.810   0.032   2.397 -0.2686 -0.3929  0.6812
10679SOL     OW33230   8.540   0.747   1.363 -0.6550 -0.0345 -0.1097
10679SOL    HW133231   8.499   0.698   1.292  2.1941 -1.3559 -1.0044
10679SOL    HW233232   8.480   0.738   1.437 -1.4747 -2.6900 -0.9912
10680SOL     OW33233   0.567   2.339   0.101 -0.1738  0.1439  0.9195
10680SOL    HW133234   0.542   2.336   0.194  0.2808 -0.3354  1.0317
10680SOL    HW233235   0.632   2.409   0.096 -0.5027  0.4454  0.8888
10681SOL     OW33236   5.785   0.879   3.337  0.0973  0.2427  0.3231
10681SOL    HW133237   5.774   0.784   3.328 -0.2880  0.4066 -1.1831
10681SOL    HW233238   5.726   0.917   3.272  1.5100  1.4692 -0.3194
10682SOL     OW33239   8.515   6.886   3.408 -0.1212  0.0719 -0.0729
10682SOL    HW133240   8.510   6.978   3.432  0.7171 -0.2066  1.2601
10682SOL    HW233241   8.429   6.850   3.430 -0.3633  0.4718 -0.3527
10683SOL     OW33242   6.556   0.521   5.650  0.1127 -0.3205 -0.2470
10683SOL    HW133243   6.560   0.429   5.676 -0.0607 -0.4661 -0.7172
10683SOL    HW233244   6.583   0.521   5.558 -2.2953 -0.2452 -1.0351
10684SOL     OW33245   0.750   5.257   7.313  0.0115  0.4227  0.0675
10684SOL    HW133246   0.732   5.193   7.381  0.8875  0.9337  0.7991
10684SOL    HW233247   0.788   5.206   7.241 -2.0751 -0.3097 -0.5803
10685SOL     OW33248   5.261   7.499   2.696 -0.5832  0.5890  0.3609
10685SOL    HW133249   5.186   7.461   2.741 -0.7255  1.3047  0.7365
10685SOL    HW233250   5.319   7.527   2.766  0.9553 -1.6593  0.0946
10686SOL     OW33251   0.761   3.785   2.485  0.2980 -0.0525 -0.5796
10686SOL    HW133252   0.786   3.869   2.523  1.7054  0.2317 -2.0170
10686SOL    HW233253   0.757   3.801   2.391 -0.8122 -1.2751 -0.7804
10687SOL     OW33254   2.654   6.313   2.379 -0.6153 -0.6049 -0.5418
10687SOL    HW133255   2.733   6.365   2.363  0.5465 -2.6806 -2.0224
10687SOL    HW233256   2.587   6.353   2.323  0.0563 -0.2484 -1.1131
10688SOL     OW33257   8.247   1.105   6.266 -0.1260  0.5227 -0.1747
10688SOL    HW133258   8.173   1.061   6.308 -1.0392  0.3326 -1.9004
10688SOL    HW233259   8.310   1.119   6.337 -0.5674 -1.9194  0.7829
10689SOL     OW33260   7.410   4.837   0.167 -0.3923  0.2352  0.1672
10689SOL    HW133261   7.484   4.778   0.158 -0.4260  0.3965 -1.4615
10689SOL    HW233262   7.371   4.840   0.080 -0.5494  2.4328  0.2535
10690SOL     OW33263   4.454   2.233   7.861 -0.0497 -0.3502 -0.5555
10690SOL    HW133264   4.504   2.230   7.779  3.0574 -1.2526  1.1808
10690SOL    HW233265   4.499   2.169   7.918 -3.3440 -1.2892  1.2231
10691SOL     OW33266   3.171   2.744   6.394 -0.3950 -0.0661 -0.1965
10691SOL    HW133267   3.124   2.716   6.315  0.5311 -1.2092 -0.3578
10691SOL    HW233268   3.155   2.839   6.398  0.9437  0.3473 -2.7471
10692SOL     OW33269   1.380   4.654   6.600 -0.0150 -0.1415 -0.1950
10692SOL    HW133270   1.429   4.646   6.518 -1.0743  0.0955 -0.8714
10692SOL    HW233271   1.403   4.575   6.650 -0.5138 -1.0661 -1.3770
10693SOL     OW33272   4.676   5.623   7.683 -0.4978  0.3069  0.1761
10693SOL    HW133273   4.770   5.607   7.693 -0.2121  0.7605 -1.4123
10693SOL    HW233274   4.659   5.702   7.735 -0.0066  0.1924  0.5108
10694SOL     OW33275   3.629   1.124   7.599 -0.2310  0.4032 -0.0106
10694SOL    HW133276   3.557   1.181   7.573 -1.7045 -0.9647  0.8990
10694SOL    HW233277   3.603   1.036   7.570  2.0023  0.1320 -1.4357
10695SOL     OW33278   7.148   4.605   5.246  0.0841  0.4796 -0.0880
10695SOL    HW133279   7.157   4.696   5.274  1.4138  0.4102 -0.2010
10695SOL    HW233280   7.165   4.607   5.152  0.5094  0.0735 -0.0233
10696SOL     OW33281   4.554   2.030   1.673 -0.0233 -0.1275  0.2592
10696SOL    HW133282   4.629   1.998   1.623  0.4402  1.3851 -0.0544
10696SOL    HW233283   4.503   2.080   1.610 -0.5376  0.0683  0.8200
10697SOL     OW33284   6.146   2.719   6.761 -0.1144  0.5737 -0.1389
10697SOL    HW133285   6.059   2.739   6.795 -0.7505 -0.3524 -1.1308
10697SOL    HW233286   6.182   2.655   6.822 -0.6819 -0.0237 -0.4087
10698SOL     OW33287   4.918   1.325   0.109  0.1114 -0.3671 -0.0571
10698SOL    HW133288   4.977   1.381   0.160  2.1392 -2.2778 -0.1574
10698SOL    HW233289   4.929   1.238   0.147 -0.8368 -1.2344 -1.6645
10699SOL     OW33290   6.740   1.095   6.747 -0.0245 -0.4796 -0.2054
10699SOL    HW133291   6.781   1.088   6.834  0.4615  2.0416 -0.1376
10699SOL    HW233292   6.668   1.033   6.749 -1.4712  1.0769  2.9135
10700SOL     OW33293   2.541   0.031   0.977 -0.2523  0.2020  0.6821
10700SOL    HW133294   2.613   0.054   0.919 -0.8011  2.0540  0.6645
10700SOL    HW233295   2.505   0.115   1.005 -3.5661 -0.5661 -0.7489
10701SOL     OW33296   0.022   5.877   4.617  0.0954  0.5280 -0.1276
10701SOL    HW133297  -0.006   5.848   4.704 -1.5579  1.5621 -0.2644
10701SOL    HW233298   0.033   5.971   4.625  0.7970  0.5196 -0.8318
10702SOL     OW33299   6.180   8.595   2.146  0.2370 -0.3522 -0.0747
10702SOL    HW133300   6.123   8.614   2.220 -0.0102 -0.5021 -0.2243
10702SOL    HW233301   6.223   8.679   2.126 -0.4357 -0.0783 -0.3866
10703SOL     OW33302   1.890   3.926   7.405 -0.0458  0.3075 -0.9603
10703SOL    HW133303   1.980   3.957   7.406 -0.3956  1.4381  1.0691
10703SOL    HW233304   1.892   3.845   7.355  1.5710  1.7252 -3.4123
10704SOL     OW33305   7.285   2.724   0.228  0.1845  0.1144 -0.2796
10704SOL    HW133306   7.198   2.723   0.268 -0.5406 -1.8232 -1.7498
10704SOL    HW233307   7.270   2.758   0.139  0.9122 -0.2791 -0.5623
10705SOL     OW33308   0.578   7.915   1.172  0.0741  0.4043 -0.1682
10705SOL    HW133309   0.511   7.847   1.181  2.2220 -1.9836 -1.3227
10705SOL    HW233310   0.575   7.961   1.256 -1.4147 -1.1427  0.7037
10706SOL     OW33311   5.098   1.434   6.051 -0.5897  0.4774  0.2930
10706SOL    HW133312   5.036   1.363   6.034 -1.1162  1.1963 -0.8517
10706SOL    HW233313   5.044   1.512   6.057  0.0782  0.9192  0.6236
10707SOL     OW33314   0.904   4.204   4.135 -0.4703  0.5087  0.0778
10707SOL    HW133315   0.816   4.226   4.163 -1.5895 -1.5604 -1.5363
10707SOL    HW233316   0.932   4.135   4.196 -0.8233 -0.3240 -0.6960
10708SOL     OW33317   1.648   2.600   6.743  0.5461 -0.0554  0.2714
10708SOL    HW133318   1.628   2.650   6.822  0.6318 -0.6958  0.7099
10708SOL    HW233319   1.609   2.651   6.672  0.4304  0.5073  0.7308
10709SOL     OW33320   4.957   4.700   6.076  0.2861  0.4134 -0.2723
10709SOL    HW133321   4.870   4.666   6.054 -0.0911 -0.9072  2.8051
10709SOL    HW233322   5.017   4.650   6.020 -0.6611 -1.6605  0.4669
10710SOL     OW33323   3.229   2.189   5.835  0.3293 -0.5710 -0.5914
10710SOL    HW133324   3.281   2.250   5.887 -0.5850  0.6554 -1.0542
10710SOL    HW233325   3.171   2.147   5.898  0.0697  0.0082 -0.4327
10711SOL     OW33326   0.996   4.853   6.567  0.3797  0.1058  0.0735
10711SOL    HW133327   1.002   4.760   6.590 -1.5401 -0.9624 -3.1595
10711SOL    HW233328   1.081   4.874   6.530  2.4800  1.0813  4.7083
10712SOL     OW33329   1.832   0.540   3.583 -0.3268  0.2122 -0.0261
10712SOL    HW133330   1.838   0.477   3.655  0.5356  2.1979  1.7275
10712SOL    HW233331   1.797   0.488   3.510 -1.1572 -1.9196  1.7417
10713SOL     OW33332   2.028   5.726   4.595  0.0919  0.5101 -0.4965
10713SOL    HW133333   2.002   5.719   4.687 -0.9962 -1.7060 -0.8950
10713SOL    HW233334   2.103   5.667   4.588 -1.3317 -1.2775 -1.4707
10714SOL     OW33335   6.877   0.422   2.091  0.5077 -0.2035  0.1900
10714SOL    HW133336   6.933   0.402   2.016  0.9337  1.0415  0.1564
10714SOL    HW233337   6.836   0.338   2.113 -1.0602 -0.2749 -2.5536
10715SOL     OW33338   3.271   2.048   1.060  0.1138 -0.1714  0.0663
10715SOL    HW133339   3.361   2.067   1.086 -0.1474  0.9646  0.2161
10715SOL    HW233340   3.277   1.970   1.005  1.3757  0.7531 -1.1752
10716SOL     OW33341   7.879   2.329   0.620 -0.5506 -0.1348  0.1788
10716SOL    HW133342   7.858   2.358   0.709  0.1138  0.8238  0.0403
10716SOL    HW233343   7.921   2.244   0.632 -1.3161 -0.4542  0.7030
10717SOL     OW33344   1.867   4.537   4.212 -0.0871  0.2056 -0.2199
10717SOL    HW133345   1.861   4.631   4.196 -1.4447 -0.0604 -1.4131
10717SOL    HW233346   1.821   4.524   4.296 -1.6583  0.3866 -1.0178
10718SOL     OW33347   3.481   3.151   5.174  0.0315  0.0966  0.2552
10718SOL    HW133348   3.527   3.130   5.092 -0.7789  0.1974 -0.2395
10718SOL    HW233349   3.468   3.066   5.216  0.6862  0.0689  0.4215
10719SOL     OW33350   6.181   3.759   3.389  0.3503 -0.2308  0.5842
10719SOL    HW133351   6.184   3.792   3.478 -0.8216  0.6970  0.3070
10719SOL    HW233352   6.122   3.683   3.393  0.3174 -0.2037  0.6146
10720SOL     OW33353   3.876   7.208   2.874  0.1418 -0.2493  0.1478
10720SOL    HW133354   3.945   7.200   2.808  1.2242 -2.7804  1.4328
10720SOL    HW233355   3.911   7.269   2.938  0.7635 -0.7014  0.2509
10721SOL     OW33356   8.216   0.771   5.702  0.4715  0.1086  0.4089
10721SOL    HW133357   8.208   0.718   5.781  3.0845 -0.5205  0.3469
10721SOL    HW233358   8.153   0.733   5.642 -3.2427  2.0036  2.7586
10722SOL     OW33359   6.905   1.433   2.082  0.3965  0.0860  0.2406
10722SOL    HW133360   6.859   1.488   2.145  1.3236 -1.2169  2.1585
10722SOL    HW233361   6.848   1.357   2.071 -1.1018  1.4504 -2.7425
10723SOL     OW33362   0.066   0.987   3.935  0.5925 -0.6548  0.0433
10723SOL    HW133363   0.023   0.913   3.978 -0.6642  0.9340  1.6438
10723SOL    HW233364   0.066   1.056   4.001  1.8983  0.7257 -1.3460
10724SOL     OW33365   2.207   0.863   8.270 -0.2502 -0.4828  0.0275
10724SOL    HW133366   2.235   0.912   8.193 -0.0619 -1.0135 -0.2473
10724SOL    HW233367   2.159   0.788   8.234 -0.7383 -0.3820  0.4461
10725SOL     OW33368   0.399   1.682   3.194 -0.5150 -0.5823 -0.1909
10725SOL    HW133369   0.422   1.676   3.101  1.1030  1.6088 -0.0294
10725SOL    HW233370   0.471   1.732   3.233 -2.4393  0.9266  1.7145
10726SOL     OW33371   2.671   5.517   0.473  0.3663 -0.5830 -0.2763
10726SOL    HW133372   2.725   5.516   0.552 -0.4622  1.1243  0.3715
10726SOL    HW233373   2.732   5.543   0.404  0.7770 -0.4962  0.1080
10727SOL     OW33374   1.418   7.415   6.880  0.5359  0.0412  0.7087
10727SOL    HW133375   1.400   7.346   6.944 -0.7109 -0.3290 -0.0048
10727SOL    HW233376   1.438   7.368   6.800  1.9903  0.5071  0.7784
10728SOL     OW33377   8.374   7.761   3.028 -0.1272  0.0078 -0.2365
10728SOL    HW133378   8.354   7.668   3.013 -1.4078  0.1779  0.3500
10728SOL    HW233379   8.342   7.805   2.949 -2.7657  0.3453  0.9110
10729SOL     OW33380   6.009   2.750   3.196  0.2165 -0.5402 -0.2235
10729SOL    HW133381   5.947   2.682   3.222 -1.1776  0.6878 -0.2828
10729SOL    HW233382   5.958   2.830   3.190  1.9929  0.7261  0.6535
10730SOL     OW33383   2.671   2.613   8.038  0.1930 -0.1251 -0.3095
10730SOL    HW133384   2.765   2.611   8.024  0.5587 -0.1674  1.8165
10730SOL    HW233385   2.653   2.702   8.069  0.3955 -1.2894  3.8125
10731SOL     OW33386   8.415   1.353   6.160 -0.1190  0.0240  0.0652
10731SOL    HW133387   8.372   1.280   6.116 -0.1186 -1.0513  1.7842
10731SOL    HW233388   8.374   1.357   6.247  1.0569  0.9893  0.6095
10732SOL     OW33389   3.418   3.465   1.494 -0.1231 -0.0302 -0.5117
10732SOL    HW133390   3.448   3.528   1.559 -2.3502  0.9884 -0.3836
10732SOL    HW233391   3.403   3.518   1.415 -1.9043 -0.3579 -0.4351
10733SOL     OW33392   7.176   4.382   7.584 -0.3749  0.5715 -0.8334
10733SOL    HW133393   7.230   4.304   7.586 -0.8333  0.2594  0.4956
10733SOL    HW233394   7.234   4.453   7.613  0.1452  0.8240 -2.4046
10734SOL     OW33395   0.624   6.810   6.012  0.4199 -0.2149  0.3572
10734SOL    HW133396   0.637   6.875   5.944  2.4464 -0.7602  0.1501
10734SOL    HW233397   0.621   6.860   6.094 -0.9533  0.3466 -0.0101
10735SOL     OW33398   5.489   0.625   2.983 -0.0144 -0.1163 -0.0810
10735SOL    HW133399   5.503   0.661   2.895 -0.1988  1.0305  0.3310
10735SOL    HW233400   5.528   0.691   3.041 -1.2373 -0.1070  0.7620
10736SOL     OW33401   0.507   0.074   4.970  0.5983 -0.1573 -0.3612
10736SOL    HW133402   0.435   0.101   5.027 -0.0611  1.3746 -1.8426
10736SOL    HW233403   0.557   0.012   5.023 -0.5775  0.3772  1.4811
10737SOL     OW33404   3.255   1.908   3.080  0.1788  0.4003  0.4290
10737SOL    HW133405   3.327   1.903   3.018  0.0756  0.9528  0.2524
10737SOL    HW233406   3.194   1.839   3.054  0.1751  0.5781 -0.0327
10738SOL     OW33407   5.313   4.504   1.925 -0.4004 -0.2120  0.3301
10738SOL    HW133408   5.394   4.523   1.972 -2.3400  2.8505  2.8445
10738SOL    HW233409   5.314   4.567   1.852  0.5066 -1.8901 -1.1982
10739SOL     OW33410   8.106   4.034   4.493  0.3846  0.3496  0.0756
10739SOL    HW133411   8.019   3.997   4.477  0.9400 -2.2014  2.1592
10739SOL    HW233412   8.090   4.125   4.518 -1.6716 -0.0281  0.3213
10740SOL     OW33413   4.360   1.979   6.988  0.0528 -0.2187  0.9464
10740SOL    HW133414   4.441   1.993   6.939 -0.4982 -2.3097 -0.7228
10740SOL    HW233415   4.371   1.894   7.030 -1.3628 -0.6526  0.4970
10741SOL     OW33416   0.445   7.275   6.714  0.0159  0.0567  1.0517
10741SOL    HW133417   0.380   7.249   6.779 -0.5671 -2.9051 -0.5194
10741SOL    HW233418   0.529   7.246   6.750  0.0486  0.8221  1.6045
10742SOL     OW33419   1.324   6.191   0.503  0.7086  0.2305  0.3848
10742SOL    HW133420   1.313   6.278   0.543 -1.5726 -0.4198  1.3835
10742SOL    HW233421   1.246   6.143   0.531  1.1685 -1.6728 -1.3919
10743SOL     OW33422   0.168   3.620   2.080  0.2073 -0.2725  0.0691
10743SOL    HW133423   0.109   3.674   2.133  2.1795 -0.2678  2.4495
10743SOL    HW233424   0.112   3.552   2.043 -1.2959 -0.4098  2.3973
10744SOL     OW33425   7.306   0.578   7.757  0.1449  0.2967 -0.3273
10744SOL    HW133426   7.330   0.546   7.843  1.3870  0.3080 -0.6441
10744SOL    HW233427   7.219   0.617   7.769  0.2284  0.1555  0.8721
10745SOL     OW33428   8.170   7.064   5.844  0.0498  0.6927 -0.1213
10745SOL    HW133429   8.181   7.003   5.771  0.3791  0.2696  0.2732
10745SOL    HW233430   8.085   7.042   5.881  0.7186 -0.4537  0.8381
10746SOL     OW33431   6.363   5.952   0.198 -0.0508 -0.3869  0.3065
10746SOL    HW133432   6.287   6.009   0.190  0.2193 -0.1461 -0.6687
10746SOL    HW233433   6.401   5.949   0.110  0.8854 -0.7481  0.7017
10747SOL     OW33434   2.603   7.635   6.943  0.1498  0.1497  0.3045
10747SOL    HW133435   2.580   7.666   7.030  1.9750  1.3099  0.4301
10747SOL    HW233436   2.527   7.585   6.914 -1.0128  0.8388  2.0242
10748SOL     OW33437   8.224   1.949   1.396 -0.4528  0.0810  0.0971
10748SOL    HW133438   8.240   1.873   1.452 -0.8369 -0.1596 -0.1203
10748SOL    HW233439   8.293   2.011   1.421 -0.1410 -0.3320  0.2790
10749SOL     OW33440   1.960   5.464   1.046  0.3628  0.3125  0.1022
10749SOL    HW133441   1.944   5.370   1.054 -1.1740  0.6060  0.8513
10749SOL    HW233442   2.052   5.471   1.022  0.3764 -1.3981 -0.4499
10750SOL     OW33443   3.604   3.982   6.322  0.4073 -0.0702  0.0151
10750SOL    HW133444   3.572   3.924   6.253  0.7956 -0.9039  0.5131
10750SOL    HW233445   3.525   4.021   6.360  0.2373  1.0420 -1.4303
10751SOL     OW33446   8.051   4.988   1.436 -0.4990  0.7289  0.0936
10751SOL    HW133447   8.056   4.953   1.525  1.5747 -2.4405 -1.1224
10751SOL    HW233448   8.123   5.051   1.431 -0.8520  1.1984  0.7091
10752SOL     OW33449   5.229   6.779   7.195  0.5496  0.0286  0.1499
10752SOL    HW133450   5.294   6.709   7.183  2.0501  1.1717  1.3277
10752SOL    HW233451   5.256   6.848   7.135  0.6261  0.6486  0.8869
10753SOL     OW33452   8.039   1.663   2.009 -0.2355 -0.3993 -0.1045
10753SOL    HW133453   8.014   1.579   2.048 -0.6119 -0.3179 -0.1692
10753SOL    HW233454   7.964   1.688   1.956 -0.1136 -0.0328 -0.1060
10754SOL     OW33455   4.324   4.530   7.872 -0.0450 -0.5903  0.2284
10754SOL    HW133456   4.373   4.598   7.919 -1.4024  2.3281 -2.2247
10754SOL    HW233457   4.384   4.499   7.804 -0.5201  0.8644 -0.9150
10755SOL     OW33458   6.001   7.064   4.289 -0.0534  0.6152  0.1932
10755SOL    HW133459   5.954   7.051   4.372 -0.7182 -0.3262 -0.3189
10755SOL    HW233460   5.972   7.149   4.258  0.1378  0.9412  0.8903
10756SOL     OW33461   7.625   2.984   8.086 -0.6415 -0.8660 -0.2260
10756SOL    HW133462   7.648   3.002   8.177  0.5445  0.2836 -0.7188
10756SOL    HW233463   7.616   2.889   8.081 -3.9869 -0.8333  1.7972
10757SOL     OW33464   7.910   7.024   5.893  0.3524  0.0362 -0.3566
10757SOL    HW133465   7.889   7.072   5.813  0.4328 -0.3829 -0.6333
10757SOL    HW233466   7.839   7.045   5.954 -0.0237 -0.1216 -0.7430
10758SOL     OW33467   0.219   1.799   4.615  0.3554 -0.1112  0.5207
10758SOL    HW133468   0.306   1.835   4.596 -0.1621  1.8953  1.6844
10758SOL    HW233469   0.158   1.861   4.576 -0.6083 -1.4772 -0.2458
10759SOL     OW33470   2.981   6.323   0.595  0.1752 -0.5017 -0.2761
10759SOL    HW133471   2.985   6.387   0.666  0.5366  0.3929 -1.0951
10759SOL    HW233472   2.908   6.265   0.619 -0.0970  0.1552  0.5090
10760SOL     OW33473   5.535   5.590   6.670 -0.2568  0.4094 -0.2411
10760SOL    HW133474   5.486   5.558   6.594 -0.2330  4.2458 -2.0652
10760SOL    HW233475   5.470   5.632   6.725  0.2565  0.9082 -0.0082
10761SOL     OW33476   4.817   4.387   6.122 -0.4612  0.3324  0.4276
10761SOL    HW133477   4.820   4.376   6.027  3.6809  2.0425  0.1190
10761SOL    HW233478   4.730   4.422   6.140 -2.7948 -3.4704 -2.1053
10762SOL     OW33479   0.616   3.985   4.321  0.6038 -0.5873 -0.5652
10762SOL    HW133480   0.625   4.080   4.330  0.5211 -0.5211 -1.1511
10762SOL    HW233481   0.591   3.955   4.409 -1.2858  0.1746 -0.7975
10763SOL     OW33482   1.390   3.044   8.285 -0.2819 -0.9128 -0.6813
10763SOL    HW133483   1.434   3.118   8.243  0.5213 -0.9053  0.1383
10763SOL    HW233484   1.392   2.975   8.220  1.6943 -1.1672 -0.4094
10764SOL     OW33485   5.487   1.491   2.281 -0.1561  0.1198  0.4283
10764SOL    HW133486   5.396   1.464   2.290 -0.4424  0.7543 -0.4507
10764SOL    HW233487   5.498   1.559   2.347 -0.9360  1.5302 -0.8491
10765SOL     OW33488   5.180   2.644   3.464 -0.2361  0.1624  0.5528
10765SOL    HW133489   5.188   2.690   3.548 -0.3069 -0.7112  1.0497
10765SOL    HW233490   5.093   2.668   3.432 -0.5378 -0.1445  1.1269
10766SOL     OW33491   2.874   4.082   0.115  0.1400 -0.3798 -0.7920
10766SOL    HW133492   2.865   4.006   0.172 -0.5568 -0.3688 -0.8769
10766SOL    HW233493   2.804   4.072   0.050 -0.9894  1.1274  0.1381
10767SOL     OW33494   5.780   2.587   7.151  0.0513 -0.1385  0.3812
10767SOL    HW133495   5.848   2.655   7.155 -0.1113  0.1728 -1.3498
10767SOL    HW233496   5.766   2.562   7.242  0.1083  2.1696  1.0987
10768SOL     OW33497   8.082   8.039   7.435  0.3751 -0.4036 -0.6368
10768SOL    HW133498   8.081   8.023   7.340  2.3606  0.2360 -0.8225
10768SOL    HW233499   8.045   7.960   7.473  0.6431 -1.1780 -1.9079
10769SOL     OW33500   0.743   2.264   6.611 -0.2139 -0.2397 -0.1778
10769SOL    HW133501   0.761   2.171   6.622 -0.5030 -0.3451 -0.5729
10769SOL    HW233502   0.655   2.267   6.573 -0.5671  0.2259  0.6512
10770SOL     OW33503   8.339   6.883   2.565 -0.0658  0.1280  0.7630
10770SOL    HW133504   8.341   6.975   2.593  0.3583 -0.2847  2.1587
10770SOL    HW233505   8.431   6.861   2.552 -0.2694  0.5122 -1.8000
10771SOL     OW33506   8.287   3.251   2.084  0.0058 -0.1220 -0.3357
10771SOL    HW133507   8.356   3.185   2.081  0.1845  0.0987 -1.5829
10771SOL    HW233508   8.223   3.222   2.020 -1.4440 -0.6873  1.2744
10772SOL     OW33509   4.771   1.873   5.324  0.2073  0.0498  0.0862
10772SOL    HW133510   4.821   1.812   5.378 -1.2894 -0.1190  1.3288
10772SOL    HW233511   4.684   1.835   5.318 -0.6177  1.7729  0.4263
10773SOL     OW33512   8.176   4.932   6.925  0.0390 -0.0448  0.3925
10773SOL    HW133513   8.104   4.881   6.963  0.8035 -2.3305 -1.0241
10773SOL    HW233514   8.254   4.879   6.941  0.7837  0.2851 -1.8067
10774SOL     OW33515   0.221   8.262   2.160  0.3990  0.3727  0.0879
10774SOL    HW133516   0.262   8.302   2.237  0.8015 -1.8282  1.0795
10774SOL    HW233517   0.231   8.328   2.091  2.6660  1.2295  1.1516
10775SOL     OW33518   3.972   2.312   4.612  0.2386 -0.9497 -0.1229
10775SOL    HW133519   3.977   2.296   4.518  0.3395  2.8115 -0.9286
10775SOL    HW233520   3.883   2.289   4.637  0.5452 -3.0649 -0.8171
10776SOL     OW33521   6.140   1.152   1.831  0.0827  0.0345  0.2001
10776SOL    HW133522   6.182   1.235   1.856 -1.8828  0.7400  1.4205
10776SOL    HW233523   6.113   1.113   1.914 -1.1356 -0.6334 -0.4823
10777SOL     OW33524   2.670   7.763   4.093 -0.1699 -0.2549  0.3883
10777SOL    HW133525   2.720   7.726   4.165 -0.8538 -0.1291  0.9396
10777SOL    HW233526   2.620   7.689   4.058  0.1774 -0.3202  0.0217
10778SOL     OW33527   7.090   3.162   5.941  0.2253 -0.0598  0.8551
10778SOL    HW133528   7.180   3.186   5.960  0.8251 -2.4406  1.3291
10778SOL    HW233529   7.093   3.121   5.855 -0.9880  2.5526 -0.5482
10779SOL     OW33530   8.020   2.203   1.777 -0.0158 -0.1052 -0.2997
10779SOL    HW133531   7.996   2.250   1.857  0.4290 -1.3596  0.6099
10779SOL    HW233532   7.987   2.258   1.706 -0.7074  0.8879  0.7503
10780SOL     OW33533   0.475   8.252   7.749  0.1325  0.2638  0.0999
10780SOL    HW133534   0.386   8.284   7.740  0.3727  1.0899  0.5350
10780SOL    HW233535   0.502   8.279   7.837  0.6654 -0.3582  0.1429
10781SOL     OW33536   7.437   7.933   3.400 -0.0707 -0.1488  0.2993
10781SOL    HW133537   7.392   7.932   3.315  0.0745 -0.9455  0.2217
10781SOL    HW233538   7.524   7.967   3.380 -0.1789  0.0743  0.2046
10782SOL     OW33539   5.840   1.681   0.684 -0.5272  0.1239  0.4193
10782SOL    HW133540   5.748   1.669   0.660 -0.1552 -0.2386 -0.9308
10782SOL    HW233541   5.855   1.775   0.672 -0.3148 -0.0656 -1.0323
10783SOL     OW33542   8.170   2.713   2.597  0.0296 -0.5015 -0.2024
10783SOL    HW133543   8.182   2.780   2.529 -0.7007  1.5429  1.5636
10783SOL    HW233544   8.093   2.664   2.568 -1.0194  1.1130 -0.3098
10784SOL     OW33545   2.522   4.769   3.983  0.0321 -0.1638 -0.4437
10784SOL    HW133546   2.583   4.830   3.941 -0.4409 -0.3753 -1.4722
10784SOL    HW233547   2.450   4.823   4.012 -0.1254 -0.1489 -0.8536
10785SOL     OW33548   6.672   5.239   1.584  0.2051  0.2844  0.4890
10785SOL    HW133549   6.693   5.261   1.675  0.3447  0.9834  0.2909
10785SOL    HW233550   6.611   5.307   1.556  0.9480  0.6787 -0.2554
10786SOL     OW33551   1.138   5.957   0.489  0.5479 -0.7672  0.2498
10786SOL    HW133552   1.059   5.982   0.536  0.6063  0.6869 -0.3909
10786SOL    HW233553   1.107   5.926   0.404  0.5485 -2.0183  0.6861
10787SOL     OW33554   3.785   4.141   2.941  0.0839 -0.2004  0.1510
10787SOL    HW133555   3.876   4.170   2.942 -0.6608  2.3648  1.5426
10787SOL    HW233556   3.754   4.157   2.852  0.5989  0.2660  0.0586
10788SOL     OW33557   7.507   6.489   5.487 -0.7878 -0.4199  0.0561
10788SOL    HW133558   7.415   6.515   5.496 -0.5376  0.1425  1.0889
10788SOL    HW233559   7.541   6.488   5.576  1.1706  2.9561 -0.4661
10789SOL     OW33560   5.483   0.075   2.071  0.3917  0.3816 -0.0689
10789SOL    HW133561   5.537  -0.003   2.079  1.5306  1.2651  1.5037
10789SOL    HW233562   5.446   0.071   1.983  0.1527 -2.0696  0.0859
10790SOL     OW33563   2.916   1.794   5.991 -0.2615 -0.2606  0.1731
10790SOL    HW133564   2.956   1.729   5.933  1.3345 -0.4130  1.3732
10790SOL    HW233565   2.952   1.775   6.078 -1.8117  0.5818  1.0534
10791SOL     OW33566   4.385   5.096   4.429  0.1651 -0.2389 -0.1775
10791SOL    HW133567   4.423   5.130   4.510 -1.3812  1.7254 -0.2032
10791SOL    HW233568   4.327   5.025   4.458  0.8007 -0.5870  0.2622
10792SOL     OW33569   8.138   4.340   4.993  0.4498  0.0721 -0.6978
10792SOL    HW133570   8.048   4.308   5.002  0.5286  0.4836  3.6419
10792SOL    HW233571   8.191   4.260   4.993  0.2143 -0.0916 -1.1299
10793SOL     OW33572   2.874   8.129   8.016  0.2747  0.9605  0.0106
10793SOL    HW133573   2.905   8.220   8.010  0.1070  0.9281 -2.6133
10793SOL    HW233574   2.951   8.076   7.997 -0.2668  0.7237 -1.7652
10794SOL     OW33575   4.580   0.702   4.296 -0.6664  0.0209  0.0228
10794SOL    HW133576   4.506   0.687   4.237  0.2106 -0.4727 -0.9942
10794SOL    HW233577   4.622   0.781   4.261 -1.2482  0.8550  1.1684
10795SOL     OW33578   2.091   3.830   5.767  0.3788 -0.2911 -0.1586
10795SOL    HW133579   2.100   3.790   5.680  0.3937 -0.7278  0.0404
10795SOL    HW233580   1.997   3.842   5.779  0.3705 -0.3161 -0.2004
10796SOL     OW33581   4.231   1.347   4.789 -0.2259 -0.1973 -0.0241
10796SOL    HW133582   4.316   1.365   4.831 -0.9531 -0.1192  1.4875
10796SOL    HW233583   4.172   1.329   4.862 -1.3468 -1.0060 -1.1002
10797SOL     OW33584   0.152   4.372   4.909 -0.3114  0.2308 -0.3629
10797SOL    HW133585   0.062   4.398   4.926  0.0679  0.2380  1.9743
10797SOL    HW233586   0.174   4.312   4.980  2.1638  1.9077  0.4327
10798SOL     OW33587   4.243   5.338   4.346  0.0755 -0.2880  0.2194
10798SOL    HW133588   4.284   5.252   4.337  0.6420 -0.0157  0.1710
10798SOL    HW233589   4.185   5.329   4.422  0.7913 -0.4592  0.7455
10799SOL     OW33590   1.188   2.887   5.974  0.6818  0.2814 -0.1407
10799SOL    HW133591   1.229   2.934   5.901  3.5763 -0.5345  0.8361
10799SOL    HW233592   1.103   2.859   5.939  1.2285  1.3934 -2.5908
10800SOL     OW33593   6.547   2.822   7.062 -0.2157  0.1392 -0.0493
10800SOL    HW133594   6.562   2.729   7.046  0.0847 -0.1577  1.6966
10800SOL    HW233595   6.452   2.829   7.072 -0.3087  0.1597 -0.8956
10801SOL     OW33596   5.702   3.618   7.134 -0.1115  0.2752 -0.3641
10801SOL    HW133597   5.680   3.602   7.225  0.0050 -0.5510 -0.4768
10801SOL    HW233598   5.746   3.703   7.134  0.0036  0.2162  0.3664
10802SOL     OW33599   5.927   6.147   2.036 -0.1127 -0.0509 -0.8056
10802SOL    HW133600   5.950   6.114   1.949  0.5540 -0.6477 -0.4231
10802SOL    HW233601   5.898   6.069   2.083 -2.3592  0.5797 -1.0655
10803SOL     OW33602   8.199   3.547   0.305  0.4182 -0.3927  0.1593
10803SOL    HW133603   8.112   3.508   0.304  0.7275 -1.2007 -2.2079
10803SOL    HW233604   8.247   3.498   0.372 -0.8480 -0.0803  1.3389
10804SOL     OW33605   3.509   0.617   2.309  0.4325 -0.1985  0.0830
10804SOL    HW133606   3.525   0.647   2.398 -1.3027  0.0858  0.3405
10804SOL    HW233607   3.516   0.696   2.255  1.1720 -0.3162 -0.0055
10805SOL     OW33608   6.957   2.115   0.946 -0.3637 -0.9006 -0.0760
10805SOL    HW133609   7.019   2.045   0.966  0.6314 -0.0823 -0.2641
10805SOL    HW233610   6.900   2.119   1.023  0.6614 -0.7606  0.6851
10806SOL     OW33611   5.292   0.055   6.166 -0.1332 -0.5252  0.6408
10806SOL    HW133612   5.241   0.055   6.246 -1.3949 -0.1217 -0.1305
10806SOL    HW233613   5.326  -0.034   6.158  1.1659 -0.2192  2.2990
10807SOL     OW33614   3.372   7.734   3.089 -0.2988  0.4602 -0.1112
10807SOL    HW133615   3.434   7.738   3.016 -1.3474 -0.8068 -1.1091
10807SOL    HW233616   3.427   7.732   3.167  0.9104 -0.1373 -0.9477
10808SOL     OW33617   4.160   6.636   1.001  0.1316 -0.3322  0.1251
10808SOL    HW133618   4.233   6.698   1.008  0.3035 -0.4845 -0.2435
10808SOL    HW233619   4.195   6.554   1.035 -0.2522 -0.1101  1.0774
10809SOL     OW33620   8.037   4.266   4.581  0.2253 -0.1576 -0.3138
10809SOL    HW133621   7.950   4.304   4.570 -1.4055 -2.7718  2.1419
10809SOL    HW233622   8.095   4.341   4.593 -1.5031  1.6960 -2.5788
10810SOL     OW33623   6.783   5.852   1.366  0.1159 -0.3974 -0.5306
10810SOL    HW133624   6.809   5.872   1.276 -1.7968  0.7986 -0.8894
10810SOL    HW233625   6.725   5.925   1.390  0.0607 -1.0454  1.4276
10811SOL     OW33626   1.459   0.920   4.810 -0.2537 -0.1791 -1.1305
10811SOL    HW133627   1.480   0.827   4.800 -0.3577 -0.1267 -1.9574
10811SOL    HW233628   1.389   0.922   4.876 -1.5487 -0.8785 -2.4203
10812SOL     OW33629   5.525   0.624   2.276 -0.2543  0.0244  0.1029
10812SOL    HW133630   5.578   0.549   2.247  0.3069  0.9243 -1.2845
10812SOL    HW233631   5.465   0.640   2.203  1.5517  2.6807 -0.9704
10813SOL     OW33632   5.368   1.704   1.511 -0.1071 -0.0813 -0.0203
10813SOL    HW133633   5.354   1.610   1.519 -1.4426  0.0705 -0.3723
10813SOL    HW233634   5.291   1.744   1.551 -0.6091  0.8180 -1.7552
10814SOL     OW33635   8.115   0.587   3.979 -0.6910 -0.1754 -0.4291
10814SOL    HW133636   8.207   0.561   3.985 -1.2503 -2.2319 -0.3166
10814SOL    HW233637   8.086   0.553   3.894 -0.5753  3.2772 -2.0649
10815SOL     OW33638   0.402   4.785   0.976 -0.2186 -0.2988 -0.3283
10815SOL    HW133639   0.310   4.795   0.948  0.1035 -1.8882 -2.2812
10815SOL    HW233640   0.446   4.862   0.942 -1.1763  1.8685  2.9113
10816SOL     OW33641   7.441   0.561   4.280  0.1306 -0.1927 -0.8864
10816SOL    HW133642   7.475   0.606   4.358 -0.1835 -0.5229 -0.5519
10816SOL    HW233643   7.346   0.569   4.288  0.0744 -0.8672 -0.8487
10817SOL     OW33644   2.053   8.180   3.882  0.4122  0.3072 -0.0405
10817SOL    HW133645   1.970   8.214   3.916  0.2037  0.2071 -0.4387
10817SOL    HW233646   2.032   8.090   3.854  0.7298  0.1743  0.1397
10818SOL     OW33647   6.752   0.234   4.833  0.0037  0.0275 -0.0484
10818SOL    HW133648   6.791   0.166   4.887  0.4378  0.8846  0.7571
10818SOL    HW233649   6.660   0.211   4.827  0.1124 -0.5268  0.3715
10819SOL     OW33650   0.386   6.611   4.049  0.1501  0.5728  0.3170
10819SOL    HW133651   0.448   6.680   4.027  0.4364  0.2221  0.0083
10819SOL    HW233652   0.389   6.551   3.975 -0.0940  0.2243  0.5837
10820SOL     OW33653   4.092   5.623   2.186  0.0617  0.2571  0.6946
10820SOL    HW133654   4.003   5.656   2.192 -0.8047 -2.0212  1.0986
10820SOL    HW233655   4.090   5.559   2.115  1.0141 -0.8139  1.5824
10821SOL     OW33656   6.170   6.413   4.500 -0.1603 -0.1000  0.3515
10821SOL    HW133657   6.153   6.488   4.444  1.0288 -0.1051 -0.0311
10821SOL    HW233658   6.256   6.381   4.474 -0.2295 -1.0198  1.1584
10822SOL     OW33659   5.495   5.157   8.481 -0.0553  0.0329 -0.2420
10822SOL    HW133660   5.470   5.247   8.463  0.7729  0.2557 -0.3165
10822SOL    HW233661   5.546   5.161   8.562 -1.1753 -0.5627  0.5242
10823SOL     OW33662   3.888   2.180   6.850 -0.0720  0.2706 -0.1217
10823SOL    HW133663   3.974   2.139   6.856 -1.2082 -2.4385 -0.7823
10823SOL    HW233664   3.885   2.215   6.761 -1.3615 -4.3360 -2.2300
10824SOL     OW33665   6.139   1.336   0.414  0.2521 -0.6330  0.1646
10824SOL    HW133666   6.219   1.389   0.418  0.6459 -1.2776  1.6758
10824SOL    HW233667   6.068   1.400   0.423  0.5905 -0.0708 -1.0676
10825SOL     OW33668   6.192   2.228   3.586  0.3323  0.0160 -0.2187
10825SOL    HW133669   6.220   2.319   3.596 -1.3225  0.4970  0.3033
10825SOL    HW233670   6.102   2.233   3.555  0.0017 -1.4304  0.3939
10826SOL     OW33671   1.262   7.609   4.704  0.1449 -0.9349  0.9222
10826SOL    HW133672   1.306   7.693   4.689 -2.0657  0.5606  2.1392
10826SOL    HW233673   1.241   7.577   4.616  0.1633  0.3045  0.4408
10827SOL     OW33674   0.711   6.374   7.869  0.3972  0.4675  0.1925
10827SOL    HW133675   0.681   6.378   7.960  0.2921 -2.6486  0.4170
10827SOL    HW233676   0.792   6.426   7.868  0.2593  0.7722  1.9960
10828SOL     OW33677   3.447   7.625   0.631  0.5588 -0.0348  0.0703
10828SOL    HW133678   3.352   7.616   0.625 -0.0358  2.2233  3.1772
10828SOL    HW233679   3.470   7.691   0.566  0.6298 -2.7651 -2.8891
10829SOL     OW33680   4.951   5.134   5.264  0.1795 -0.2049 -0.4001
10829SOL    HW133681   4.965   5.056   5.318  2.0791  0.5446  0.2791
10829SOL    HW233682   4.857   5.150   5.268 -0.2036 -2.2245 -0.2534
10830SOL     OW33683   1.179   0.001   4.057  0.5269  0.1645  0.4998
10830SOL    HW133684   1.200   0.052   3.979 -0.6029  0.2591  0.2313
10830SOL    HW233685   1.225   0.044   4.128  2.3039 -0.4516 -0.2388
10831SOL     OW33686   5.350   0.541   0.789 -0.4960  0.7772 -0.4918
10831SOL    HW133687   5.307   0.526   0.872  1.4112  1.0646  0.6130
10831SOL    HW233688   5.406   0.464   0.776  0.2907  1.3764 -0.7669
10832SOL     OW33689   4.851   4.523   5.260  0.0691 -0.4584 -0.2942
10832SOL    HW133690   4.888   4.479   5.184  0.7627  0.6079 -0.5893
10832SOL    HW233691   4.789   4.587   5.223  1.5955  1.2111 -0.1111
10833SOL     OW33692   2.067   4.974   5.602  0.2487  0.4497  0.2480
10833SOL    HW133693   1.999   5.040   5.587 -0.6955 -0.4530  0.4165
10833SOL    HW233694   2.068   4.961   5.697 -0.5370 -0.7139  0.1296
10834SOL     OW33695   4.119   4.965   6.235  0.0209  0.2898 -0.5094
10834SOL    HW133696   4.100   5.001   6.148  1.4248  0.9543 -0.5598
10834SOL    HW233697   4.198   4.912   6.222 -1.1982 -1.7583 -0.1523
10835SOL     OW33698   5.017   6.768   1.917  0.4138 -0.5588  0.3650
10835SOL    HW133699   5.099   6.807   1.888  0.6786 -0.7185  0.8879
10835SOL    HW233700   4.959   6.773   1.841  0.7041  0.1318  0.1826
10836SOL     OW33701   6.496   5.552   4.396  0.5303  0.3865  0.5424
10836SOL    HW133702   6.494   5.638   4.439  2.2954  0.9963 -0.5162
10836SOL    HW233703   6.516   5.491   4.466 -0.3353  0.8647  1.2367
10837SOL     OW33704   3.475   7.022   6.055  0.1408  0.2787  0.1813
10837SOL    HW133705   3.403   7.016   5.993  0.5800  0.3650 -0.3476
10837SOL    HW233706   3.538   7.080   6.012  0.5270  0.1953  0.6316
10838SOL     OW33707   7.605   1.075   7.387 -0.3166  0.0392  0.0698
10838SOL    HW133708   7.562   1.157   7.362  0.3317  0.8022  1.4019
10838SOL    HW233709   7.697   1.097   7.396 -0.3600 -0.4498  2.0279
10839SOL     OW33710   7.888   2.167   0.330 -0.1277 -0.2170  0.0844
10839SOL    HW133711   7.838   2.101   0.379  0.7530 -0.9452  0.0243
10839SOL    HW233712   7.849   2.251   0.356 -0.5964 -0.6876  0.9393
10840SOL     OW33713   0.931   6.182   3.269  0.2388 -0.4898 -0.3758
10840SOL    HW133714   0.938   6.119   3.340  0.1966  0.8468  0.8765
10840SOL    HW233715   0.841   6.171   3.236  0.3962 -1.4072 -0.5217
10841SOL     OW33716   2.103   7.211   5.030  0.6845 -0.4402 -0.4890
10841SOL    HW133717   2.181   7.199   5.085  1.1742  0.5673 -0.9243
10841SOL    HW233718   2.044   7.264   5.082  0.8139 -0.1580 -0.6277
10842SOL     OW33719   4.631   0.896   5.640 -0.2987  0.7981  0.0016
10842SOL    HW133720   4.579   0.918   5.562  0.8840 -1.5656 -1.5704
10842SOL    HW233721   4.712   0.946   5.629  0.4095 -0.5072 -1.0545
10843SOL     OW33722   0.679   5.836   2.763 -0.2619 -0.5424 -0.0922
10843SOL    HW133723   0.739   5.904   2.795 -0.4598 -0.3039 -0.2278
10843SOL    HW233724   0.600   5.883   2.736 -0.3720 -0.8166 -0.2610
10844SOL     OW33725   6.163   5.497   0.813 -0.2788  0.5712 -0.1961
10844SOL    HW133726   6.131   5.510   0.723 -0.3259 -1.0114 -0.4477
10844SOL    HW233727   6.253   5.467   0.801 -0.1522  0.7505  0.3136
10845SOL     OW33728   4.511   7.119   2.876  0.1320  0.0213 -0.5080
10845SOL    HW133729   4.468   7.033   2.882 -1.5608  0.8191 -0.6681
10845SOL    HW233730   4.462   7.175   2.936 -0.0573  1.3640 -1.8507
10846SOL     OW33731   7.916   8.198   4.039  0.4531 -0.2181 -0.0070
10846SOL    HW133732   7.995   8.181   3.986  0.2239 -1.8509  0.1194
10846SOL    HW233733   7.884   8.282   4.007  2.3793  0.6161  0.1057
10847SOL     OW33734   8.521   0.347   0.096 -0.4614  0.2979 -0.2623
10847SOL    HW133735   8.522   0.433   0.137 -1.6816 -0.0327  0.5286
10847SOL    HW233736   8.587   0.352   0.027  2.3875  0.5620  2.2843
10848SOL     OW33737   5.296   3.366   2.168  0.5084 -0.0245  0.3830
10848SOL    HW133738   5.371   3.421   2.146  0.2165  0.0229 -0.5249
10848SOL    HW233739   5.292   3.301   2.098  0.1567 -0.4890  0.8297
10849SOL     OW33740   1.593   7.020   2.726 -0.0019  0.1824 -0.1801
10849SOL    HW133741   1.546   7.067   2.657 -0.3629 -0.7002 -0.5508
10849SOL    HW233742   1.560   6.930   2.720  2.4858 -0.7464 -1.1489
10850SOL     OW33743   0.331   5.108   7.657 -0.3981 -0.2196 -0.4593
10850SOL    HW133744   0.283   5.160   7.721  0.4306  0.3152 -0.2600
10850SOL    HW233745   0.388   5.170   7.613 -0.4843 -0.7001 -1.2683
10851SOL     OW33746   4.354   5.038   2.079  0.6956 -0.0819 -0.3655
10851SOL    HW133747   4.399   5.103   2.132  0.9353 -1.8529  1.7653
10851SOL    HW233748   4.287   5.087   2.031  1.3951  1.8029  0.5122
10852SOL     OW33749   6.698   0.014   6.507  0.1982 -0.6750 -0.6156
10852SOL    HW133750   6.671  -0.038   6.431 -1.7095 -0.0092 -0.4449
10852SOL    HW233751   6.630   0.080   6.516  2.0810  1.3086 -0.2536
10853SOL     OW33752   7.395   1.504   5.396  0.1039  0.0488  0.2551
10853SOL    HW133753   7.488   1.482   5.399  0.0504 -0.1118  2.2685
10853SOL    HW233754   7.352   1.431   5.441 -0.5716  1.8180  2.7101
10854SOL     OW33755   7.462   3.353   3.886  0.2930 -0.0241 -0.2774
10854SOL    HW133756   7.379   3.400   3.886  0.8028  0.9457  1.1500
10854SOL    HW233757   7.439   3.262   3.867 -1.3589 -0.1325  1.8730
10855SOL     OW33758   7.271   6.481   7.228  0.4262 -0.3443  0.1310
10855SOL    HW133759   7.338   6.527   7.177 -0.6504  0.5177 -0.5447
10855SOL    HW233760   7.262   6.534   7.308 -2.2052  1.9088 -1.4787
10856SOL     OW33761   2.078   0.299   5.221 -0.4008  0.1511 -0.0517
10856SOL    HW133762   2.105   0.331   5.307 -1.8680 -1.7519  1.2039
10856SOL    HW233763   2.160   0.278   5.176  0.3772  0.6338  1.0947
10857SOL     OW33764   0.837   1.924   7.356  0.3681  0.7253  0.1885
10857SOL    HW133765   0.788   1.908   7.276  1.2979 -0.5685 -0.1553
10857SOL    HW233766   0.928   1.913   7.331  0.6261 -0.8775  1.6440
10858SOL     OW33767   0.562   8.105   3.365 -0.3259 -0.3744 -0.2601
10858SOL    HW133768   0.533   8.192   3.340  0.9661 -0.0310 -0.6445
10858SOL    HW233769   0.499   8.076   3.431 -1.4992  0.3168 -1.0562
10859SOL     OW33770   0.146   0.951   7.785  0.2256  0.0468  0.2646
10859SOL    HW133771   0.193   0.916   7.710 -0.4965  1.1864 -0.7621
10859SOL    HW233772   0.056   0.960   7.755 -0.1961 -0.0114  1.4604
10860SOL     OW33773   8.473   1.795   6.065  0.0246 -0.0468 -0.2298
10860SOL    HW133774   8.402   1.743   6.103 -1.4776  2.7405  1.0787
10860SOL    HW233775   8.526   1.821   6.140  0.8640  0.1506 -0.8825
10861SOL     OW33776   2.491   3.545   3.900  0.0325  0.5383  0.2120
10861SOL    HW133777   2.586   3.552   3.899  0.1599 -0.9069  0.1811
10861SOL    HW233778   2.473   3.453   3.879 -1.3328  0.5995  0.9615
10862SOL     OW33779   3.736   5.022   3.774  0.2499 -0.4272  0.1591
10862SOL    HW133780   3.734   4.985   3.862  0.8900 -1.6343 -0.2964
10862SOL    HW233781   3.674   4.969   3.724  0.7009 -0.4856 -0.3574
10863SOL     OW33782   2.330   3.687   0.205 -0.1168 -0.2396  0.1693
10863SOL    HW133783   2.353   3.770   0.246 -0.5083 -0.9796  2.0223
10863SOL    HW233784   2.414   3.647   0.182  0.0889  0.4328 -0.2732
10864SOL     OW33785   4.762   3.134   1.541  0.1575 -0.5359  0.2024
10864SOL    HW133786   4.834   3.073   1.562 -1.0994 -1.6667  1.4097
10864SOL    HW233787   4.756   3.190   1.617  2.0409  1.9803 -1.3423
10865SOL     OW33788   0.703   6.487   3.203 -0.4350  0.1324  0.3912
10865SOL    HW133789   0.796   6.480   3.183 -0.2115  1.6995  0.7644
10865SOL    HW233790   0.700   6.528   3.289 -1.4642  2.2594 -0.5861
10866SOL     OW33791   3.106   4.918   3.121  0.2913 -0.0170 -0.0022
10866SOL    HW133792   3.086   4.828   3.144 -1.1218  0.6469  1.5820
10866SOL    HW233793   3.202   4.921   3.117  0.3946 -1.3624  0.9296
10867SOL     OW33794   6.115   6.472   1.178  0.1472  0.2320  0.5877
10867SOL    HW133795   6.077   6.416   1.246 -3.7983  1.7742 -0.1259
10867SOL    HW233796   6.112   6.560   1.215 -0.2525  0.8536 -0.8810
10868SOL     OW33797   7.637   5.381   6.429 -0.0206  0.7058 -0.0640
10868SOL    HW133798   7.564   5.426   6.472 -0.2285  0.2627  0.0556
10868SOL    HW233799   7.660   5.437   6.355 -0.9048  0.5452 -0.4784
10869SOL     OW33800   4.781   6.847   8.206  0.0023  0.4504  0.1022
10869SOL    HW133801   4.812   6.937   8.214  0.3545  0.4011 -0.6379
10869SOL    HW233802   4.783   6.829   8.112  0.9707 -0.6834  0.3098
10870SOL     OW33803   5.120   2.974   3.630 -0.4669  0.1571 -0.6868
10870SOL    HW133804   5.073   3.004   3.553  2.7176 -1.4144 -3.5211
10870SOL    HW233805   5.074   2.895   3.658 -1.4039  0.5103 -1.1998
10871SOL     OW33806   2.134   6.856   2.734 -0.4923  0.3817 -0.1449
10871SOL    HW133807   2.095   6.800   2.667  2.6356 -0.6918 -1.2014
10871SOL    HW233808   2.140   6.800   2.811  0.4667  0.0184 -0.4826
10872SOL     OW33809   3.184   4.222   0.611  0.0246 -0.2343 -0.3480
10872SOL    HW133810   3.183   4.128   0.590 -0.7136 -0.3386  0.1086
10872SOL    HW233811   3.139   4.264   0.538 -1.3948 -0.4568  0.3770
10873SOL     OW33812   1.956   4.874   0.710  0.1367  0.0769  0.0623
10873SOL    HW133813   2.018   4.872   0.784  0.4559 -1.0613 -0.2212
10873SOL    HW233814   1.983   4.951   0.660  1.3370 -0.3948 -0.0517
10874SOL     OW33815   6.706   1.671   6.510 -0.6184  0.0701 -0.1087
10874SOL    HW133816   6.755   1.728   6.450 -2.1480  0.0608 -1.4570
10874SOL    HW233817   6.629   1.723   6.534 -1.6182 -1.0902 -0.6945
10875SOL     OW33818   3.614   8.022   7.095 -0.0987  0.3110 -0.6168
10875SOL    HW133819   3.629   7.956   7.163  1.8393  1.9293  0.6412
10875SOL    HW233820   3.537   7.991   7.048 -0.8466 -1.4688  1.5919
10876SOL     OW33821   2.012   0.002   8.219 -0.5143  0.6857 -0.2820
10876SOL    HW133822   2.074   0.022   8.289  0.5079  1.6761 -1.4135
10876SOL    HW233823   2.041  -0.083   8.185 -0.1289  0.8560 -0.3954
10877SOL     OW33824   1.330   1.447   3.144  0.4230  0.2427  0.5568
10877SOL    HW133825   1.340   1.542   3.149 -3.2005  0.7613  0.3058
10877SOL    HW233826   1.333   1.418   3.235  1.2220  0.6149  0.6578
10878SOL     OW33827   0.787   7.726   6.536 -0.2579  0.0315  0.3553
10878SOL    HW133828   0.722   7.792   6.557 -1.9224 -0.5475 -2.4155
10878SOL    HW233829   0.774   7.657   6.600 -2.4773 -0.0751 -0.1406
10879SOL     OW33830   6.489   6.404   7.676  0.5779 -0.6907 -0.0909
10879SOL    HW133831   6.568   6.429   7.629  1.2157 -1.5173  0.5097
10879SOL    HW233832   6.465   6.319   7.639  0.0470 -0.5114 -0.1678
10880SOL     OW33833   8.487   3.703   7.095  0.1428 -0.5540  0.1250
10880SOL    HW133834   8.452   3.681   7.181  2.0923 -0.8576  0.9076
10880SOL    HW233835   8.418   3.679   7.033 -1.0217 -0.9952  1.5522
10881SOL     OW33836   0.969   2.267   0.802 -0.5521 -0.3644  0.1142
10881SOL    HW133837   0.977   2.250   0.896  1.7147  0.9453  0.2223
10881SOL    HW233838   1.055   2.298   0.776 -0.5577 -2.5093 -2.8450
10882SOL     OW33839   5.676   7.698   5.332 -0.5371 -0.2095 -0.4292
10882SOL    HW133840   5.645   7.773   5.281  1.2734  1.4881  0.8527
10882SOL    HW233841   5.605   7.634   5.324 -1.5578  1.0575 -2.6985
10883SOL     OW33842   0.095   3.860   6.890 -0.3452 -0.0994 -0.0410
10883SOL    HW133843   0.177   3.896   6.924  0.4835 -1.3292 -0.7134
10883SOL    HW233844   0.087   3.774   6.930  0.4875 -1.4665 -2.6013
10884SOL     OW33845   5.424   6.651   0.767  0.2631 -0.0315 -0.5082
10884SOL    HW133846   5.380   6.690   0.691 -1.0518 -0.1315  0.1703
10884SOL    HW233847   5.379   6.689   0.843 -1.1614 -2.8571  0.2038
10885SOL     OW33848   2.158   2.244   7.474  0.0677  1.1740 -0.1152
10885SOL    HW133849   2.231   2.183   7.482 -0.7586  0.1315 -0.1810
10885SOL    HW233850   2.115   2.220   7.392 -0.8814  1.1267  0.3719
10886SOL     OW33851   7.380   6.977   0.056  0.4570  0.1020  0.6459
10886SOL    HW133852   7.397   6.938   0.141  0.0388  1.7366  1.5272
10886SOL    HW233853   7.300   7.029   0.068  1.4702  1.9725 -0.1340
10887SOL     OW33854   2.078   5.534   5.902  0.5009  0.0788  0.2662
10887SOL    HW133855   2.086   5.545   5.807 -0.9852 -0.3631  0.0532
10887SOL    HW233856   2.024   5.608   5.930 -1.9350 -1.5350  0.1931
10888SOL     OW33857   4.930   7.377   0.448 -0.6446  0.1959  0.2634
10888SOL    HW133858   4.983   7.314   0.399 -0.1265  1.2161 -0.5542
10888SOL    HW233859   4.986   7.404   0.521 -1.2888 -1.0770  1.2643
10889SOL     OW33860   5.843   2.522   0.118 -0.4145  0.0475 -0.1193
10889SOL    HW133861   5.839   2.454   0.051  0.9254  0.7401 -0.9270
10889SOL    HW233862   5.870   2.476   0.198 -0.2638 -0.4825 -0.4766
10890SOL     OW33863   5.484   3.937   2.166  0.9023 -0.2559  0.1033
10890SOL    HW133864   5.527   3.981   2.240 -0.1693  2.7617 -0.9025
10890SOL    HW233865   5.499   3.995   2.092 -2.2387 -0.6078 -0.9464
10891SOL     OW33866   1.078   3.337   2.811  0.5927 -0.6905  0.2599
10891SOL    HW133867   1.008   3.342   2.876  0.8693 -1.6667  0.6617
10891SOL    HW233868   1.049   3.394   2.740  0.0322 -0.0243  1.0052
10892SOL     OW33869   1.514   3.212   6.833  0.1062 -0.1510 -0.1750
10892SOL    HW133870   1.525   3.257   6.916  2.2717  0.2510 -0.6082
10892SOL    HW233871   1.563   3.130   6.844 -1.9591 -1.4577 -0.1399
10893SOL     OW33872   8.013   4.947   2.806  0.3344  0.4657 -0.4963
10893SOL    HW133873   8.038   4.949   2.899 -0.9993 -0.2780 -0.1000
10893SOL    HW233874   8.058   5.022   2.768  0.0960  1.3985  0.9655
10894SOL     OW33875   8.122   8.169   3.881  0.0479 -0.0851  0.0509
10894SOL    HW133876   8.202   8.222   3.878 -0.6900  1.0254 -0.6481
10894SOL    HW233877   8.126   8.117   3.800  0.1894 -0.2206  0.1443
10895SOL     OW33878   6.674   6.713   5.387 -0.0491  0.2993  0.1506
10895SOL    HW133879   6.587   6.671   5.395  0.0357  0.4129  2.4524
10895SOL    HW233880   6.658   6.791   5.335 -1.1665 -0.1129 -0.1662
10896SOL     OW33881   3.113   1.898   7.748  0.0507  0.0367 -0.0148
10896SOL    HW133882   3.138   1.938   7.832  0.6955  0.5420 -0.4393
10896SOL    HW233883   3.040   1.950   7.716 -0.1832 -0.1444  0.2181
10897SOL     OW33884   6.181   0.385   2.724 -0.8993  0.0732  0.6073
10897SOL    HW133885   6.227   0.469   2.729  1.5612 -1.0007 -1.5319
10897SOL    HW233886   6.243   0.322   2.760 -2.8786 -0.8833  2.6151
10898SOL     OW33887   6.661   3.702   0.827  0.1896  0.7935  0.0003
10898SOL    HW133888   6.713   3.709   0.907  0.7432  1.2323 -0.3927
10898SOL    HW233889   6.634   3.792   0.808 -0.7989  0.5611  0.2498
10899SOL     OW33890   0.687   4.577   2.891  0.6969  0.0442  0.2373
10899SOL    HW133891   0.668   4.670   2.875  0.1870 -0.2324 -0.8606
10899SOL    HW233892   0.685   4.569   2.987 -0.3045  0.9554  0.3161
10900SOL     OW33893   4.992   1.401   6.913 -0.2022 -0.0546  0.0510
10900SOL    HW133894   5.060   1.431   6.973 -0.3122  0.2255  0.0361
10900SOL    HW233895   5.015   1.310   6.894 -2.1915 -1.4431  3.4202
10901SOL     OW33896   8.427   3.021   3.980 -0.2017 -0.0045 -0.4402
10901SOL    HW133897   8.366   2.955   3.948  1.0019 -1.6816  0.5480
10901SOL    HW233898   8.432   3.005   4.075  0.1630  1.5072 -0.1676
10902SOL     OW33899   3.257   5.538   1.508  0.5071 -0.3851 -0.4615
10902SOL    HW133900   3.216   5.520   1.593 -0.5016 -1.2774 -1.1107
10902SOL    HW233901   3.350   5.523   1.523  0.3972 -0.1352  0.5843
10903SOL     OW33902   0.093   8.594   1.660 -0.0698  0.0071  0.2412
10903SOL    HW133903   0.080   8.542   1.740  1.2572  2.0373  1.8664
10903SOL    HW233904   0.008   8.635   1.644  0.0435  0.8288  1.5921
10904SOL     OW33905   8.058   6.325   2.312 -0.0402  0.0220 -0.0123
10904SOL    HW133906   8.142   6.314   2.267  2.1335  1.2431  3.3555
10904SOL    HW233907   8.030   6.236   2.331  0.2528 -0.4247 -1.5227
10905SOL     OW33908   4.256   3.041   8.507  0.1710  0.6652 -0.0148
10905SOL    HW133909   4.318   3.083   8.565  1.1711  0.4696 -0.9102
10905SOL    HW233910   4.192   3.109   8.486  0.8941  1.2865 -0.2189
10906SOL     OW33911   6.978   2.163   7.206 -0.7565  0.3301 -0.0143
10906SOL    HW133912   6.975   2.258   7.212 -2.3787  0.2236  1.8696
10906SOL    HW233913   7.071   2.141   7.213 -0.4004  1.7474 -0.0793
10907SOL     OW33914   5.060   2.206   2.020  0.5523 -0.3688  0.0466
10907SOL    HW133915   4.977   2.251   2.035 -0.0659 -1.5827  0.3811
10907SOL    HW233916   5.126   2.272   2.037 -0.3142  0.2401  1.2291
10908SOL     OW33917   4.005   7.339   5.398 -0.0104 -0.2523  0.2978
10908SOL    HW133918   4.032   7.404   5.333  1.7382 -0.1484  1.0540
10908SOL    HW233919   3.938   7.384   5.450 -0.7596 -0.0172 -0.8414
10909SOL     OW33920   7.721   5.169   7.708  0.2973  0.5283 -0.1969
10909SOL    HW133921   7.755   5.246   7.664  0.0784  0.9267  0.3263
10909SOL    HW233922   7.743   5.096   7.649  0.0316  1.0432 -0.9522
10910SOL     OW33923   1.702   4.277   1.810 -0.5760  0.1535 -0.3762
10910SOL    HW133924   1.710   4.231   1.727 -3.0569 -2.4637  0.6450
10910SOL    HW233925   1.790   4.276   1.847 -0.1010 -1.9182 -1.4066
10911SOL     OW33926   4.455   8.047   5.628 -0.1132 -0.2477 -0.8179
10911SOL    HW133927   4.548   8.044   5.603  0.2864 -0.8422  0.6205
10911SOL    HW233928   4.419   7.965   5.594 -0.0125 -0.1955 -1.0511
10912SOL     OW33929   2.481   3.130   7.505  0.0436 -0.2695  0.1805
10912SOL    HW133930   2.559   3.167   7.546  1.0613 -0.7246 -1.2500
10912SOL    HW233931   2.494   3.036   7.509 -1.8281 -0.5150  2.4607
10913SOL     OW33932   8.479   4.671   0.143 -0.1237  0.5951  0.1268
10913SOL    HW133933   8.467   4.600   0.079  0.1047  1.6218 -1.0980
10913SOL    HW233934   8.393   4.714   0.146  0.3165  1.5688 -0.7716
10914SOL     OW33935   7.431   8.037   3.075  0.0548 -0.2872 -0.8414
10914SOL    HW133936   7.364   7.983   3.118 -0.2173  0.8596  0.2732
10914SOL    HW233937   7.408   8.036   2.983  0.8005 -3.0665 -1.0606
10915SOL     OW33938   5.025   8.550   2.909  0.0105  0.2069  0.8585
10915SOL    HW133939   5.037   8.635   2.867  0.9463 -1.0090 -1.4974
10915SOL    HW233940   5.080   8.554   2.987 -0.9803  2.1698  1.5426
10916SOL     OW33941   5.739   1.339   0.850  0.3630  0.4537  0.0947
10916SOL    HW133942   5.666   1.391   0.883  0.4784 -0.0554  1.2197
10916SOL    HW233943   5.817   1.386   0.880  0.4830  0.4000 -0.1324
10917SOL     OW33944   1.874   6.707   4.277 -0.7334  0.0310 -0.2652
10917SOL    HW133945   1.872   6.729   4.370 -0.5002 -1.2596  0.0600
10917SOL    HW233946   1.914   6.783   4.235  1.3682 -0.3199  0.9879
10918SOL     OW33947   5.308   0.228   2.200 -0.2074  0.1999  0.3519
10918SOL    HW133948   5.365   0.168   2.152  0.1452  1.0615 -0.3532
10918SOL    HW233949   5.237   0.173   2.233 -0.7059 -0.3896 -1.5395
10919SOL     OW33950   8.384   2.900   7.188 -0.4865 -0.0927  0.7837
10919SOL    HW133951   8.358   2.966   7.123  0.5638  1.5179  1.9245
10919SOL    HW233952   8.303   2.878   7.233 -0.9380  0.0583  0.0628
10920SOL     OW33953   4.393   7.714   1.932 -0.0137 -0.3950  0.4189
10920SOL    HW133954   4.379   7.626   1.898 -1.3882  0.1722 -0.5509
10920SOL    HW233955   4.362   7.710   2.023 -0.4592 -0.8044  0.2518
10921SOL     OW33956   3.662   1.430   5.590 -0.0863  0.2250 -0.1448
10921SOL    HW133957   3.579   1.447   5.545 -0.6755 -2.3130 -0.1511
10921SOL    HW233958   3.649   1.465   5.678 -0.4538  1.5306 -0.6999
10922SOL     OW33959   2.078   7.316   6.084  0.2803 -0.0592  0.1664
10922SOL    HW133960   2.084   7.410   6.068 -2.6752  0.0163 -1.0642
10922SOL    HW233961   2.007   7.306   6.147  0.8099 -1.4923  0.5892
10923SOL     OW33962   6.240   2.449   2.455 -0.2557 -0.1631  0.0324
10923SOL    HW133963   6.211   2.377   2.398 -1.5067 -0.0319  0.4743
10923SOL    HW233964   6.176   2.518   2.439  1.2091  1.0651 -0.7484
10924SOL     OW33965   5.352   3.729   1.184  0.0901 -0.5127  0.2752
10924SOL    HW133966   5.298   3.651   1.173  0.6263 -0.8179 -0.2298
10924SOL    HW233967   5.290   3.801   1.190 -0.3659 -0.5698 -2.4857
10925SOL     OW33968   8.483   8.529   6.901 -0.5725  0.1325  0.1723
10925SOL    HW133969   8.560   8.560   6.854 -0.0172  0.6348  1.3499
10925SOL    HW233970   8.409   8.563   6.852 -0.0125  0.7492 -0.2670
10926SOL     OW33971   1.143   6.917   6.123 -0.0637 -0.3250 -0.6947
10926SOL    HW133972   1.166   6.835   6.166 -1.7368 -0.1957  0.5552
10926SOL    HW233973   1.075   6.894   6.061 -0.3651  0.0577 -0.5175
10927SOL     OW33974   1.606   0.566   3.940 -0.3975  0.5579 -0.3715
10927SOL    HW133975   1.605   0.606   4.027 -3.9781 -0.5650  0.2467
10927SOL    HW233976   1.607   0.640   3.879  0.2386  1.3870  0.6297
10928SOL     OW33977   0.048   4.390   2.138 -0.0929 -0.2162  0.2698
10928SOL    HW133978   0.090   4.417   2.220 -1.6213  0.2917  0.9138
10928SOL    HW233979   0.114   4.336   2.094  1.2987  0.7013  1.1459
10929SOL     OW33980   7.285   4.470   8.078  0.3690  0.2050  0.5636
10929SOL    HW133981   7.379   4.451   8.076  0.3237 -0.0054 -1.3496
10929SOL    HW233982   7.246   4.403   8.022 -1.2090 -0.8966  2.8413
10930SOL     OW33983   6.896   4.949   6.173  0.4632 -0.1217 -0.5623
10930SOL    HW133984   6.949   4.966   6.095 -0.6659  0.7048 -1.1762
10930SOL    HW233985   6.851   5.031   6.190 -1.8269 -1.2153 -1.0039
10931SOL     OW33986   5.338   3.214   4.411 -0.6301  0.4300 -0.3120
10931SOL    HW133987   5.402   3.262   4.465 -1.7143  0.7178  0.7691
10931SOL    HW233988   5.389   3.144   4.370  0.5029  1.0334  0.0253
10932SOL     OW33989   1.910   7.087   0.258 -0.0572  0.1695 -0.6606
10932SOL    HW133990   1.970   7.020   0.226  0.8447  0.1498  0.9833
10932SOL    HW233991   1.868   7.048   0.335  0.5917  1.5175  0.4169
10933SOL     OW33992   4.210   6.703   3.728 -0.2482  0.3830  0.6907
10933SOL    HW133993   4.174   6.759   3.659  0.0898 -2.0565 -1.6963
10933SOL    HW233994   4.285   6.751   3.762 -0.6850  1.8844 -0.3757
10934SOL     OW33995   5.476   6.576   5.100  0.5369  0.4497 -0.4069
10934SOL    HW133996   5.426   6.530   5.033  0.4203 -1.6820  1.0536
10934SOL    HW233997   5.557   6.526   5.108  0.8639  1.1039  0.5146
10935SOL     OW33998   7.937   6.690   2.083  0.4099 -0.2345  0.1557
10935SOL    HW133999   7.949   6.604   2.123  2.8628 -0.3715 -0.6588
10935SOL    HW234000   7.937   6.751   2.157  0.3281 -0.8052  0.6348
10936SOL     OW34001   2.350   4.583   7.516 -0.4497 -0.0803 -0.4867
10936SOL    HW134002   2.320   4.554   7.602  0.7553  1.7305  0.5991
10936SOL    HW234003   2.418   4.520   7.492  1.1494  0.9434  1.1936
10937SOL     OW34004   6.049   4.104   5.316  0.7405  0.5114  0.1714
10937SOL    HW134005   6.090   4.072   5.397 -0.7255 -0.7470  0.4561
10937SOL    HW234006   6.032   4.197   5.334  0.9719  0.3881  1.1009
10938SOL     OW34007   2.053   2.952   3.080  0.5375 -0.2981 -0.3179
10938SOL    HW134008   1.972   2.990   3.113  0.9398  2.0722 -1.7768
10938SOL    HW234009   2.025   2.878   3.026 -0.2896 -2.2846  2.5920
10939SOL     OW34010   5.672   2.030   7.211 -0.0085 -0.0378 -0.1878
10939SOL    HW134011   5.718   2.070   7.137 -0.6744  1.3809  0.1219
10939SOL    HW234012   5.627   1.954   7.173  0.8366 -0.1826 -0.9272
10940SOL     OW34013   5.637   7.346   1.616 -0.5674  0.0461  0.5992
10940SOL    HW134014   5.649   7.292   1.538  0.2352 -0.0923  0.8042
10940SOL    HW234015   5.568   7.301   1.665 -1.2129  0.2419 -0.1076
10941SOL     OW34016   4.708   4.775   7.648 -0.2328 -0.6570  0.0036
10941SOL    HW134017   4.694   4.819   7.732 -0.4394 -0.3208 -0.2048
10941SOL    HW234018   4.632   4.799   7.595 -1.6307 -3.1865  0.6761
10942SOL     OW34019   0.715   6.986   4.054  0.1263 -0.1416  0.0502
10942SOL    HW134020   0.728   7.041   3.977 -0.8960  0.5769  0.3770
10942SOL    HW234021   0.738   7.043   4.128  0.2575 -0.5509  0.3301
10943SOL     OW34022   0.291   3.658   3.523 -0.0147  0.5330  0.6515
10943SOL    HW134023   0.375   3.620   3.549 -0.4747  0.3966  2.0076
10943SOL    HW234024   0.286   3.643   3.429 -0.2166 -2.8420  1.0930
10944SOL     OW34025   2.420   2.458   7.371  0.0442 -0.0405 -0.0808
10944SOL    HW134026   2.477   2.457   7.447 -1.9353  0.1171  1.4791
10944SOL    HW234027   2.456   2.391   7.313  2.5666  0.9906  0.1950
10945SOL     OW34028   3.429   2.624   1.291 -0.3821  0.6455 -0.3327
10945SOL    HW134029   3.371   2.690   1.329 -0.3710  0.2679  0.3519
10945SOL    HW234030   3.392   2.540   1.319 -0.0502  0.3744 -0.6863
10946SOL     OW34031   7.488   5.693   3.255  0.2651 -0.0009 -0.3206
10946SOL    HW134032   7.399   5.713   3.284  0.8544  1.2086  0.7433
10946SOL    HW234033   7.476   5.633   3.181 -1.4474  0.5863 -0.5679
10947SOL     OW34034   7.458   3.351   1.169  0.3469  0.1466  0.0232
10947SOL    HW134035   7.392   3.418   1.188 -0.8910 -1.5130  1.9348
10947SOL    HW234036   7.541   3.400   1.164 -0.5663  1.8739  0.8795
10948SOL     OW34037   5.776   8.060   4.095  0.2485  0.1505  0.0806
10948SOL    HW134038   5.867   8.070   4.122  0.3608 -0.0959 -0.1961
10948SOL    HW234039   5.779   8.064   3.999  0.0862 -0.7032  0.0283
10949SOL     OW34040   0.929   5.563   5.357 -0.8732  0.0873 -0.1255
10949SOL    HW134041   0.884   5.646   5.345  0.6638  1.3269  1.9950
10949SOL    HW234042   0.941   5.555   5.451  1.2580 -1.2689 -0.4304
10950SOL     OW34043   6.739   2.148   5.816  0.0945 -0.4992 -0.5146
10950SOL    HW134044   6.834   2.130   5.818 -0.0481 -1.5733 -1.7356
10950SOL    HW234045   6.699   2.067   5.848 -0.4348 -0.4611 -1.0601
10951SOL     OW34046   8.021   0.170   2.945  0.5546 -0.1224  0.0584
10951SOL    HW134047   8.025   0.074   2.948  2.1680 -0.1006 -0.5435
10951SOL    HW234048   7.991   0.195   3.032  0.6745 -1.1563  0.4187
10952SOL     OW34049   3.577   5.093   3.042 -0.2278 -0.2278  0.8216
10952SOL    HW134050   3.651   5.117   3.098 -0.7432 -1.4960  2.0907
10952SOL    HW234051   3.548   5.176   3.004  1.7813  0.3076  0.3539
10953SOL     OW34052   1.346   8.005   7.620 -0.2403  0.0950 -0.3831
10953SOL    HW134053   1.359   8.010   7.525  0.3171 -0.0247 -0.3180
10953SOL    HW234054   1.349   8.096   7.649  1.1176  0.0492 -0.2979
10954SOL     OW34055   6.421   3.591   3.387 -0.5738  0.2304 -0.0136
10954SOL    HW134056   6.454   3.624   3.303 -1.9196  1.1725 -0.2111
10954SOL    HW234057   6.330   3.622   3.391 -0.8825 -0.7435  1.2996
10955SOL     OW34058   0.216   2.463   5.033  0.2837  0.0950  0.0273
10955SOL    HW134059   0.194   2.523   5.104  0.3267  1.5976 -1.1661
10955SOL    HW234060   0.290   2.413   5.066  1.7933  2.3323  0.2805
10956SOL     OW34061   1.344   7.237   0.517 -0.3348  0.4079 -0.0775
10956SOL    HW134062   1.356   7.254   0.611 -0.5073  0.9064 -0.1403
10956SOL    HW234063   1.433   7.234   0.482 -0.2394 -0.4968  0.2157
10957SOL     OW34064   4.551   0.635   3.935 -0.1171 -0.5038  0.0384
10957SOL    HW134065   4.458   0.639   3.957 -0.4818 -1.0575 -1.3009
10957SOL    HW234066   4.562   0.697   3.863  0.6722 -0.0349  0.5435
10958SOL     OW34067   3.562   4.015   0.837  0.1804  0.2329  0.0777
10958SOL    HW134068   3.630   4.009   0.905  0.1510  0.4756  0.1315
10958SOL    HW234069   3.491   4.063   0.879 -0.5187 -1.0480  0.4088
10959SOL     OW34070   5.018   3.653   6.974  0.2950 -0.5831 -0.1832
10959SOL    HW134071   5.088   3.671   6.912  0.6389 -0.0233  0.3575
10959SOL    HW234072   5.031   3.717   7.044 -0.4480 -0.8116  0.1701
10960SOL     OW34073   1.578   7.418   3.452 -0.2303 -0.2595  0.9050
10960SOL    HW134074   1.495   7.377   3.476 -1.2578  0.2956 -1.3612
10960SOL    HW234075   1.556   7.511   3.442  1.0105  0.1304  1.6259
10961SOL     OW34076   5.471   6.379   5.404  0.1304 -0.2445 -0.2742
10961SOL    HW134077   5.411   6.314   5.366 -0.0553 -0.0430 -0.3267
10961SOL    HW234078   5.484   6.350   5.494 -0.2110 -0.1682 -0.2020
10962SOL     OW34079   5.856   5.943   6.630 -0.1355  0.0852 -0.5705
10962SOL    HW134080   5.798   5.999   6.682 -1.6322 -0.3457 -1.7204
10962SOL    HW234081   5.930   6.000   6.609 -1.6489  1.7181 -1.7579
10963SOL     OW34082   7.894   7.338   7.954 -0.4452  0.3600  0.6252
10963SOL    HW134083   7.908   7.380   8.039 -0.9122 -0.3181  1.0379
10963SOL    HW234084   7.961   7.270   7.949 -1.3825 -0.6254  1.1312
10964SOL     OW34085   2.255   7.650   5.491 -0.0006 -0.2542 -0.5326
10964SOL    HW134086   2.327   7.709   5.514  0.1194 -1.4511  2.5761
10964SOL    HW234087   2.222   7.619   5.575 -2.6795 -1.5387 -1.9511
10965SOL     OW34088   3.340   3.752   0.134 -0.1360 -0.2656 -0.0725
10965SOL    HW134089   3.416   3.694   0.136 -0.3263 -0.5020  0.7415
10965SOL    HW234090   3.323   3.767   0.040  1.2029  0.1971 -0.2565
10966SOL     OW34091   1.250   6.151   3.540  0.4977 -0.0141  0.1337
10966SOL    HW134092   1.225   6.098   3.464 -0.4338  1.9667 -1.0211
10966SOL    HW234093   1.345   6.154   3.536  0.6847 -2.5114  0.9367
10967SOL     OW34094   6.273   5.825   7.949  0.5943  0.1911 -0.3608
10967SOL    HW134095   6.177   5.836   7.948  0.4835 -0.4524  1.0849
10967SOL    HW234096   6.291   5.766   7.876 -0.0280  0.8577 -1.0716
10968SOL     OW34097   3.399   8.330   4.984  0.5054 -0.5580 -0.2534
10968SOL    HW134098   3.389   8.400   5.049  0.4341  1.0569 -1.9498
10968SOL    HW234099   3.310   8.310   4.956  0.3397 -2.6057  1.4091
10969SOL     OW34100   1.861   1.487   6.727  0.0227 -0.1108  0.1344
10969SOL    HW134101   1.927   1.425   6.758  0.5926  0.3397 -0.1522
10969SOL    HW234102   1.904   1.572   6.730 -0.4326  0.1485 -0.3677
10970SOL     OW34103   3.791   2.512   4.364  0.1275  0.1270  0.6953
10970SOL    HW134104   3.740   2.516   4.283 -1.8429  1.6155  1.8897
10970SOL    HW234105   3.798   2.419   4.383  0.6009 -0.2456 -1.1425
10971SOL     OW34106   0.022   5.565   4.363 -0.1635  0.5594 -0.0951
10971SOL    HW134107  -0.013   5.565   4.274 -2.3396 -0.2688  0.6770
10971SOL    HW234108   0.061   5.478   4.374 -0.4353  0.4387 -0.0667
10972SOL     OW34109   4.704   5.312   0.054 -0.0993 -0.5348  0.0158
10972SOL    HW134110   4.706   5.406   0.071  1.0878 -0.6700  0.7422
10972SOL    HW234111   4.671   5.305  -0.036 -1.7636  0.4617  0.4994
10973SOL     OW34112   0.088   3.378   4.563  0.0095 -0.4473 -0.2407
10973SOL    HW134113   0.021   3.321   4.524 -0.9300  0.4758 -0.0197
10973SOL    HW234114   0.134   3.322   4.625 -0.0680 -1.2964 -0.9269
10974SOL     OW34115   4.311   1.385   5.997  0.2246 -0.3076 -0.4166
10974SOL    HW134116   4.257   1.354   5.924 -0.6156  0.0120  0.0600
10974SOL    HW234117   4.313   1.480   5.987 -0.4988 -0.1984  0.3819
10975SOL     OW34118   6.192   5.289   7.903 -0.3623  0.5031 -0.1672
10975SOL    HW134119   6.113   5.270   7.954 -0.6808  1.3847 -0.3249
10975SOL    HW234120   6.264   5.260   7.959 -0.7442  0.7680  0.4688
10976SOL     OW34121   1.659   1.681   1.599  0.4345 -0.2000  0.3564
10976SOL    HW134122   1.621   1.767   1.615  0.1708  0.3670 -2.7335
10976SOL    HW234123   1.753   1.694   1.612  0.6130  1.1059 -1.8168
10977SOL     OW34124   0.800   7.945   5.024 -0.5196  0.5375  0.0514
10977SOL    HW134125   0.755   7.935   4.940  0.5961  0.6354 -0.5739
10977SOL    HW234126   0.848   8.027   5.016  2.2089 -0.9898 -0.5172
10978SOL     OW34127   6.837   1.153   0.761  0.6334 -0.2520  0.5229
10978SOL    HW134128   6.931   1.159   0.748  0.4666  0.2636 -0.5864
10978SOL    HW234129   6.826   1.092   0.834  1.8375  0.1082  1.0269
10979SOL     OW34130   7.459   7.295   5.817  0.5015 -0.6172  0.4482
10979SOL    HW134131   7.486   7.384   5.836 -0.6509 -0.2822  0.5974
10979SOL    HW234132   7.497   7.275   5.732  1.9216 -0.4953  1.0246
10980SOL     OW34133   2.777   5.348   5.723 -0.4076 -0.3923 -0.2337
10980SOL    HW134134   2.794   5.436   5.690  0.5893  0.1359  1.5638
10980SOL    HW234135   2.684   5.348   5.744 -0.9017 -0.5091 -2.2419
10981SOL     OW34136   5.341   2.857   0.182 -0.5374  0.0460  0.1777
10981SOL    HW134137   5.311   2.767   0.179 -1.1844  0.2185  1.0619
10981SOL    HW234138   5.358   2.880   0.091 -2.8404 -0.1634 -0.3537
10982SOL     OW34139   2.579   4.066   0.429 -0.5504  0.5573  0.0834
10982SOL    HW134140   2.532   4.131   0.482 -0.3862 -0.2164  1.2077
10982SOL    HW234141   2.633   4.018   0.492 -2.3985 -2.2142 -0.2935
10983SOL     OW34142   1.652   2.075   0.702  0.5461 -0.7620  0.2222
10983SOL    HW134143   1.704   1.997   0.686  1.8835 -0.0357  0.8967
10983SOL    HW234144   1.685   2.110   0.784  2.3351  2.3184 -1.6142
10984SOL     OW34145   5.170   6.320   6.332  0.2030 -0.2216  0.3491
10984SOL    HW134146   5.215   6.392   6.288  0.9412 -1.4390 -0.9922
10984SOL    HW234147   5.118   6.362   6.400  0.1971  1.6241 -0.7174
10985SOL     OW34148   3.390   0.990   8.220 -0.2363 -0.2693 -0.6202
10985SOL    HW134149   3.383   0.971   8.126 -0.8674  1.7138 -1.0290
10985SOL    HW234150   3.300   0.983   8.252  0.0415 -1.4013 -0.0267
10986SOL     OW34151   1.440   4.619   1.044  0.2971  0.8313  0.0410
10986SOL    HW134152   1.469   4.636   1.133 -0.5025 -0.3681  0.5500
10986SOL    HW234153   1.451   4.524   1.032 -0.9141  0.7578 -0.6440
10987SOL     OW34154   2.064   3.377   1.792 -0.0364 -0.1711  0.4590
10987SOL    HW134155   2.141   3.427   1.765 -1.3929  0.8833 -1.7950
10987SOL    HW234156   2.090   3.334   1.873  2.4669  1.1795  0.4689
10988SOL     OW34157   6.550   1.047   6.220 -0.6656  0.3149 -0.3194
10988SOL    HW134158   6.583   1.066   6.307  0.9474 -1.0536 -0.5713
10988SOL    HW234159   6.613   1.088   6.161  2.1184 -4.1017 -0.8433
10989SOL     OW34160   3.696   6.436   6.051  0.0083  0.2033  0.3884
10989SOL    HW134161   3.732   6.437   6.139  1.6002 -0.8626 -0.1997
10989SOL    HW234162   3.749   6.499   6.002  0.8249 -1.0237 -0.3748
10990SOL     OW34163   5.894   1.705   8.108 -0.5224 -0.0774 -0.0019
10990SOL    HW134164   5.985   1.724   8.085 -0.0656 -1.7008  0.3345
10990SOL    HW234165   5.848   1.788   8.094  0.7779  0.4714 -1.3337
10991SOL     OW34166   0.125   0.867   4.289 -0.5901  0.8444 -0.0382
10991SOL    HW134167   0.069   0.827   4.223 -0.8236 -2.0517  1.7128
10991SOL    HW234168   0.068   0.877   4.365  0.4021  1.1675  0.6840
10992SOL     OW34169   3.143   8.245   4.862  0.0656 -0.0688  0.3527
10992SOL    HW134170   3.197   8.210   4.791 -0.4104  0.2049 -0.1627
10992SOL    HW234171   3.095   8.169   4.896  1.9526 -0.6245  1.9244
10993SOL     OW34172   3.956   7.959   7.045 -0.6279  0.0493  0.2262
10993SOL    HW134173   3.999   8.039   7.077 -0.5957 -0.8724  2.6557
10993SOL    HW234174   3.923   7.916   7.123  0.2102 -2.8505 -0.8833
10994SOL     OW34175   3.957   5.403   7.498  0.7891  0.2706  0.2104
10994SOL    HW134176   3.961   5.317   7.538  1.0426 -0.2438 -0.8719
10994SOL    HW234177   3.884   5.398   7.436 -0.2532  1.3713  1.3034
10995SOL     OW34178   5.983   7.028   5.196  0.1214  0.2648  0.3545
10995SOL    HW134179   6.077   7.041   5.182 -0.3487  1.1367 -2.7776
10995SOL    HW234180   5.947   7.116   5.205 -0.7057  0.1710 -1.5074
10996SOL     OW34181   4.691   5.881   4.183 -0.1683 -0.3609  0.3163
10996SOL    HW134182   4.636   5.868   4.106 -0.5056  0.7551  0.3403
10996SOL    HW234183   4.770   5.923   4.149 -0.3330  0.1702  0.5618
10997SOL     OW34184   3.567   0.467   1.009  0.2966 -0.1302 -0.3272
10997SOL    HW134185   3.614   0.500   0.933  2.0251  0.8868  1.0981
10997SOL    HW234186   3.523   0.388   0.978  0.9773  0.2207 -2.3420
10998SOL     OW34187   6.561   5.839   0.920  0.0179 -0.2438 -0.4480
10998SOL    HW134188   6.554   5.798   0.834 -2.5709  0.0695 -0.4928
10998SOL    HW234189   6.629   5.905   0.911  0.3148 -0.7317 -2.0231
10999SOL     OW34190   7.225   7.466   6.986 -0.4222 -0.4998 -0.1227
10999SOL    HW134191   7.281   7.534   7.024 -0.0985  0.4324 -2.1288
10999SOL    HW234192   7.179   7.428   7.061  1.2083  0.2500  1.3323
11000SOL     OW34193   7.651   7.709   7.089  0.3103  0.3132 -0.1838
11000SOL    HW134194   7.631   7.768   7.161 -0.5546  1.1857 -1.1097
11000SOL    HW234195   7.746   7.698   7.093  0.3431  0.8106  0.7259
11001SOL     OW34196   7.213   3.052   6.864 -0.1301  0.2422  0.0873
11001SOL    HW134197   7.299   3.030   6.829 -0.4974  1.4583 -1.6934
11001SOL    HW234198   7.163   2.971   6.859  0.3088  0.0180 -0.7649
11002SOL     OW34199   3.761   0.467   4.600 -0.6537  0.1869 -0.3821
11002SOL    HW134200   3.833   0.439   4.657  1.7963  1.4349 -2.6386
11002SOL    HW234201   3.711   0.388   4.583  0.9439 -1.0171  0.2698
11003SOL     OW34202   0.837   6.555   4.764  0.6710 -0.0152 -0.1062
11003SOL    HW134203   0.776   6.526   4.696 -0.0732  0.8782  0.1718
11003SOL    HW234204   0.894   6.618   4.720  0.3464  0.3784  0.0372
11004SOL     OW34205   5.802   2.166   2.770  0.0200  0.4867 -0.1134
11004SOL    HW134206   5.809   2.076   2.737 -0.0082 -0.1941  1.6236
11004SOL    HW234207   5.890   2.203   2.760 -0.0227  0.3509 -1.0402
11005SOL     OW34208   6.788   4.995   7.982  0.4374  0.3460 -0.3553
11005SOL    HW134209   6.739   5.051   8.042 -0.9884  1.0569 -2.1161
11005SOL    HW234210   6.722   4.941   7.940  1.4765 -0.5328 -0.8980
11006SOL     OW34211   2.047   2.507   3.267 -0.2493  0.5307 -0.2546
11006SOL    HW134212   1.961   2.540   3.241 -0.6101  0.0654  0.3092
11006SOL    HW234213   2.086   2.474   3.186 -0.7964  0.3333 -0.4410
11007SOL     OW34214   3.055   2.345   1.810 -0.0298  0.5368 -0.2122
11007SOL    HW134215   3.023   2.313   1.894  0.5423 -0.5233 -0.3788
11007SOL    HW234216   2.992   2.313   1.746  1.3947 -1.8126 -0.5757
11008SOL     OW34217   5.945   2.055   7.849 -0.3099 -0.5254 -0.5254
11008SOL    HW134218   5.884   2.080   7.918 -0.4524 -1.3210 -0.3588
11008SOL    HW234219   5.894   2.060   7.768 -0.0725  0.6619 -0.6181
11009SOL     OW34220   0.244   6.557   2.365 -0.0556  0.5401  0.0574
11009SOL    HW134221   0.176   6.573   2.430  0.4145  1.0727  0.4294
11009SOL    HW234222   0.251   6.462   2.360 -0.6875  0.4857  0.1574
11010SOL     OW34223   6.343   3.768   0.576  0.4344  0.0199  0.3746
11010SOL    HW134224   6.285   3.701   0.611 -1.2332  1.2220  0.0170
11010SOL    HW234225   6.319   3.776   0.484  3.1627 -1.4351 -0.5730
11011SOL     OW34226   1.839   5.510   5.096  0.1790 -0.2588  0.0070
11011SOL    HW134227   1.910   5.527   5.158 -0.2264 -0.2774  0.4854
11011SOL    HW234228   1.816   5.596   5.061 -0.4175 -0.0731  0.8133
11012SOL     OW34229   3.895   7.070   5.338  0.5495 -0.1868  0.4865
11012SOL    HW134230   3.937   7.122   5.406  0.3585  1.4958 -0.6102
11012SOL    HW234231   3.927   7.108   5.256  0.9363 -2.2792 -0.4092
11013SOL     OW34232   1.591   3.815   0.629 -0.2327 -0.1750  0.1142
11013SOL    HW134233   1.583   3.720   0.628 -0.5086 -0.1728  0.9869
11013SOL    HW234234   1.526   3.843   0.694 -0.7163  0.6664 -0.7134
11014SOL     OW34235   7.642   6.930   4.977 -0.4249 -0.5197 -0.3774
11014SOL    HW134236   7.649   6.986   5.055  0.5386 -0.5470 -0.4326
11014SOL    HW234237   7.703   6.858   4.994 -0.9546 -1.0555 -0.7264
11015SOL     OW34238   5.382   0.142   2.882 -0.1315 -0.0996  0.0980
11015SOL    HW134239   5.344   0.228   2.902 -0.7554 -0.0217 -1.3134
11015SOL    HW234240   5.464   0.141   2.931 -1.5806 -0.0080  2.7016
11016SOL     OW34241   1.015   3.334   6.475 -0.3458  0.4266  0.0390
11016SOL    HW134242   0.982   3.417   6.441 -1.9529  0.1091  0.7391
11016SOL    HW234243   1.073   3.359   6.546  1.8156  1.0355 -1.8253
11017SOL     OW34244   3.966   7.128   5.037  0.0267  0.4044  0.0804
11017SOL    HW134245   3.897   7.141   4.973 -0.6770 -0.3887  0.6415
11017SOL    HW234246   4.046   7.162   4.996 -0.6510  1.1103 -0.6686
11018SOL     OW34247   3.947   7.668   4.879  0.0155  0.0502  0.3669
11018SOL    HW134248   4.005   7.593   4.869 -2.0007 -1.3880 -1.4222
11018SOL    HW234249   3.981   7.733   4.817  0.5301 -0.1854  0.3952
11019SOL     OW34250   3.410   4.031   2.370  0.4067  0.2713 -0.5276
11019SOL    HW134251   3.447   3.943   2.379 -0.9321 -0.1390  1.5481
11019SOL    HW234252   3.483   4.084   2.337  1.3983 -1.4711 -1.3038
11020SOL     OW34253   2.772   5.375   7.432  0.3664  0.3174  0.4196
11020SOL    HW134254   2.738   5.383   7.522  1.6698  0.4318  0.9212
11020SOL    HW234255   2.802   5.285   7.425  0.6892  0.4395  0.2426
11021SOL     OW34256   1.026   5.726   8.268 -0.1735 -0.2694  0.7522
11021SOL    HW134257   1.115   5.760   8.269 -0.3582  0.2454  0.5137
11021SOL    HW234258   1.002   5.725   8.175 -0.1763 -1.0615  0.7539
11022SOL     OW34259   4.323   7.154   6.785  0.2907  0.1171  0.8212
11022SOL    HW134260   4.268   7.176   6.709  0.2568 -1.0289  0.4964
11022SOL    HW234261   4.410   7.138   6.748  0.3135 -0.2848  1.0429
11023SOL     OW34262   2.868   8.556   1.190 -0.3294  0.3361  0.3587
11023SOL    HW134263   2.964   8.555   1.199 -0.2995 -0.5359  0.0210
11023SOL    HW234264   2.837   8.601   1.268  0.2542 -1.1881  1.5182
11024SOL     OW34265   2.621   7.417   2.633  0.1961 -0.0481  0.2605
11024SOL    HW134266   2.664   7.497   2.665 -0.8633  0.4103  0.6001
11024SOL    HW234267   2.626   7.356   2.707 -2.2479  1.0100  1.4213
11025SOL     OW34268   4.947   1.292   1.530 -0.2146  0.9634  0.0797
11025SOL    HW134269   5.030   1.327   1.561  0.7576  0.5687 -1.9690
11025SOL    HW234270   4.957   1.197   1.534 -0.5157  0.9107 -0.2983
11026SOL     OW34271   1.669   7.838   8.349 -0.2385  0.2543  0.0244
11026SOL    HW134272   1.582   7.802   8.335 -0.9199  1.4375  0.9907
11026SOL    HW234273   1.662   7.929   8.319 -0.3081  1.3373  2.9919
11027SOL     OW34274   4.543   5.179   7.251 -0.6616 -0.3527  0.5837
11027SOL    HW134275   4.589   5.191   7.168 -0.8658 -2.2214  0.1671
11027SOL    HW234276   4.605   5.209   7.317  0.9942 -2.2979 -0.0034
11028SOL     OW34277   1.816   0.462   3.131 -0.0271  0.1150 -0.0572
11028SOL    HW134278   1.864   0.405   3.190  0.8294  0.7405 -0.1353
11028SOL    HW234279   1.823   0.549   3.170  0.5845  0.5424 -1.0850
11029SOL     OW34280   1.144   0.217   2.253  0.1022 -0.2700 -0.3683
11029SOL    HW134281   1.172   0.259   2.171 -1.0525 -0.4589 -0.8712
11029SOL    HW234282   1.090   0.283   2.296  1.0799 -0.0011  0.4795
11030SOL     OW34283   1.557   1.853   2.561 -0.2604 -0.5285 -0.7354
11030SOL    HW134284   1.564   1.875   2.468  2.0895  0.1410 -0.4699
11030SOL    HW234285   1.570   1.936   2.607 -3.1662 -0.5150  0.2426
11031SOL     OW34286   2.580   1.238   4.394  0.3528  0.4564  0.4569
11031SOL    HW134287   2.549   1.318   4.351  0.9374  1.3873  1.6897
11031SOL    HW234288   2.673   1.253   4.408 -0.2408  1.5598  4.5899
11032SOL     OW34289   0.632   7.396   1.690 -0.4617 -0.4726  0.2991
11032SOL    HW134290   0.608   7.483   1.723 -0.2506  0.0982 -0.9783
11032SOL    HW234291   0.678   7.355   1.762 -1.4840  0.0667  1.3022
11033SOL     OW34292   0.899   0.641   3.704  0.6502 -0.1859  0.6798
11033SOL    HW134293   0.984   0.662   3.742  1.4694 -4.0107  1.4041
11033SOL    HW234294   0.914   0.638   3.610  1.0683  0.1140  0.7355
11034SOL     OW34295   7.715   3.483   2.398 -0.1995  0.3740  0.5720
11034SOL    HW134296   7.746   3.493   2.489 -0.2628  0.9515  0.5300
11034SOL    HW234297   7.636   3.536   2.394  0.9568  2.0941 -0.3980
11035SOL     OW34298   7.140   3.533   0.559  0.3520  0.1483  0.0234
11035SOL    HW134299   7.225   3.577   0.547 -0.1347  0.9792 -0.4943
11035SOL    HW234300   7.128   3.482   0.480  0.0754  0.5448 -0.1917
11036SOL     OW34301   5.223   5.437   5.944  0.4567 -0.0742  0.1970
11036SOL    HW134302   5.222   5.500   6.016 -2.5190  0.9540 -0.5990
11036SOL    HW234303   5.258   5.486   5.870 -0.0917  0.0467  0.0210
11037SOL     OW34304   4.668   4.145   1.740 -0.0703 -0.5502 -0.3898
11037SOL    HW134305   4.657   4.108   1.828 -1.4467  1.1607  0.2186
11037SOL    HW234306   4.761   4.163   1.733 -0.0400 -0.0621  1.0163
11038SOL     OW34307   3.334   8.553   2.944  0.5565  0.3138 -0.1138
11038SOL    HW134308   3.410   8.588   2.898  0.3807  0.6373 -0.1681
11038SOL    HW234309   3.268   8.623   2.937 -0.1758 -0.4607 -1.1560
11039SOL     OW34310   7.667   2.906   2.940  0.4419 -0.1560 -0.0733
11039SOL    HW134311   7.726   2.982   2.946  0.2414 -0.0607  0.8127
11039SOL    HW234312   7.648   2.883   3.031 -1.1376  0.0146 -0.3295
11040SOL     OW34313   0.208   2.000   4.050 -0.0277 -0.1966  0.9061
11040SOL    HW134314   0.241   1.938   3.985 -0.6700  0.1157  0.2690
11040SOL    HW234315   0.131   1.957   4.088  0.2496 -0.3081  1.3557
11041SOL     OW34316   1.406   8.368   0.532 -0.0525 -0.6007 -0.5769
11041SOL    HW134317   1.409   8.441   0.470 -0.2331  0.9714  1.1799
11041SOL    HW234318   1.462   8.396   0.604 -1.8454 -1.2173  1.1204
11042SOL     OW34319   1.370   4.852   0.155  0.1313 -0.0404 -0.2946
11042SOL    HW134320   1.348   4.924   0.096  0.7196  0.3411 -0.0505
11042SOL    HW234321   1.459   4.871   0.185 -0.7277  0.6740  2.0334
11043SOL     OW34322   7.970   1.855   0.698 -0.0502  0.1418  0.7394
11043SOL    HW134323   7.970   1.812   0.783  0.2753  0.2175  0.7789
11043SOL    HW234324   8.014   1.938   0.713  1.2286 -0.4164  0.2161
11044SOL     OW34325   0.857   2.039   6.970  0.3340 -0.3329 -0.6413
11044SOL    HW134326   0.821   2.127   6.978  0.5534 -0.2017 -1.0608
11044SOL    HW234327   0.951   2.051   6.984  0.2900 -0.5958 -0.0699
11045SOL     OW34328   4.287   7.785   8.150 -0.4518  0.0425  0.2965
11045SOL    HW134329   4.201   7.742   8.142 -0.2135 -0.3265 -0.3548
11045SOL    HW234330   4.294   7.838   8.070 -0.2037  0.3080  0.4959
11046SOL     OW34331   1.921   8.293   6.630  0.0080  0.2297 -0.1001
11046SOL    HW134332   1.970   8.291   6.548 -1.6969  0.3299 -1.1522
11046SOL    HW234333   1.905   8.386   6.646 -1.5634  0.1125 -0.8512
11047SOL     OW34334   0.993   2.894   5.029  0.3657 -0.2085 -0.1247
11047SOL    HW134335   0.939   2.951   4.973  2.1590  0.8340 -0.8888
11047SOL    HW234336   0.939   2.879   5.107 -0.9490  0.9275 -0.7644
11048SOL     OW34337   3.687   6.934   3.134 -0.1692  0.8282  0.1775
11048SOL    HW134338   3.717   6.857   3.183 -1.0543  1.1657  1.3001
11048SOL    HW234339   3.740   7.006   3.167  1.3670  0.5737 -1.5990
11049SOL     OW34340   7.205   5.940   2.718  0.4349  0.4474 -0.1128
11049SOL    HW134341   7.241   6.014   2.671 -0.3737  0.5050 -0.6548
11049SOL    HW234342   7.280   5.902   2.765  0.7326  1.9899  0.7161
11050SOL     OW34343   4.902   7.595   6.269  0.5801  0.3828  0.3135
11050SOL    HW134344   4.893   7.502   6.248  2.2638 -0.0285  1.1816
11050SOL    HW234345   4.995   7.605   6.293  0.5632  2.4037 -0.2958
11051SOL     OW34346   1.908   5.226   6.086  0.0455 -0.8238 -0.5808
11051SOL    HW134347   1.897   5.171   6.164 -0.2607  1.2682  0.9183
11051SOL    HW234348   1.848   5.299   6.099  0.9241  0.2358 -2.1668
11052SOL     OW34349   0.966   2.423   3.789 -0.3938 -0.0311 -0.0228
11052SOL    HW134350   0.905   2.463   3.728  1.2735 -0.7887 -2.3087
11052SOL    HW234351   0.925   2.341   3.815 -1.7123  0.9082  0.9964
11053SOL     OW34352   7.949   5.795   5.271 -0.1284 -0.0484  0.2909
11053SOL    HW134353   7.933   5.779   5.364  1.4963 -0.8203  0.4866
11053SOL    HW234354   7.953   5.707   5.232 -1.7345  0.2812 -0.7153
11054SOL     OW34355   8.145   5.222   2.129 -0.3308  0.1073  0.2144
11054SOL    HW134356   8.214   5.180   2.181 -0.5237  0.2225  0.5671
11054SOL    HW234357   8.166   5.315   2.132 -1.0256  0.2539  1.1283
11055SOL     OW34358   6.134   3.065   8.334  0.7159 -0.3154 -0.1192
11055SOL    HW134359   6.213   3.025   8.297  1.3543  1.1800 -0.4501
11055SOL    HW234360   6.129   3.151   8.292 -2.9866 -1.5518 -2.7521
11056SOL     OW34361   6.343   0.118   8.453 -0.1432 -0.4634 -0.1405
11056SOL    HW134362   6.322   0.043   8.510 -1.8094 -1.3965 -1.8607
11056SOL    HW234363   6.354   0.191   8.514 -2.1865 -1.3282  1.4310
11057SOL     OW34364   4.078   2.985   0.146 -0.1273  0.0919 -0.3475
11057SOL    HW134365   4.084   2.929   0.224 -0.6280 -0.7597 -0.9095
11057SOL    HW234366   4.147   2.952   0.088 -1.6335 -1.2124 -1.4619
11058SOL     OW34367   3.180   1.558   5.258 -0.1919 -0.7556 -1.0419
11058SOL    HW134368   3.130   1.639   5.245  0.7501  0.1392  0.4986
11058SOL    HW234369   3.122   1.503   5.310  0.0887 -0.0285  0.0817
11059SOL     OW34370   3.619   5.448   4.103 -0.8348 -1.2417 -0.0109
11059SOL    HW134371   3.534   5.487   4.084 -0.4311 -1.6080 -3.2912
11059SOL    HW234372   3.599   5.367   4.150 -2.3162 -1.1969 -0.5290
11060SOL     OW34373   7.729   1.675   4.141  0.5005  0.2069  0.1087
11060SOL    HW134374   7.690   1.643   4.059  1.4460  0.7274 -0.5658
11060SOL    HW234375   7.661   1.731   4.178  0.7061  1.4165 -1.2441
11061SOL     OW34376   0.093   7.369   4.630 -0.3476 -0.0429  0.2646
11061SOL    HW134377   0.072   7.462   4.629  1.4050  0.4107  1.3388
11061SOL    HW234378   0.181   7.364   4.667  0.2718 -2.0022 -1.2361
11062SOL     OW34379   3.810   2.561   5.266  0.0777  0.0068  0.3253
11062SOL    HW134380   3.805   2.475   5.224  0.1945 -0.1471  0.6229
11062SOL    HW234381   3.894   2.560   5.313 -0.6881 -0.3667  1.7470
11063SOL     OW34382   6.178   6.948   7.500 -0.2598 -0.0191  0.7069
11063SOL    HW134383   6.085   6.932   7.488 -0.0015 -1.3137  0.2621
11063SOL    HW234384   6.212   6.958   7.411  0.3556 -1.7099  0.7104
11064SOL     OW34385   0.294   6.464   8.221  0.2706  0.1360 -0.1384
11064SOL    HW134386   0.287   6.494   8.131 -2.8807 -1.5167 -0.5892
11064SOL    HW234387   0.239   6.524   8.272  0.0017 -0.4007  0.2204
11065SOL     OW34388   2.731   6.669   0.504 -1.0333 -0.4249 -0.5087
11065SOL    HW134389   2.737   6.658   0.599 -0.4481 -0.1524 -0.5086
11065SOL    HW234390   2.749   6.762   0.489 -0.3996 -0.6088 -0.9357
11066SOL     OW34391   3.392   6.010   5.085 -0.1233 -0.0827  0.3531
11066SOL    HW134392   3.362   6.096   5.056 -1.1444 -0.3688  0.5255
11066SOL    HW234393   3.321   5.976   5.139  0.2351 -1.0661  0.2325
11067SOL     OW34394   2.335   1.333   7.529 -0.0035 -0.7034 -0.1594
11067SOL    HW134395   2.395   1.301   7.596  1.6312  2.4694  0.0857
11067SOL    HW234396   2.391   1.382   7.468 -2.2351  3.0616  0.4564
11068SOL     OW34397   0.344   4.997   4.330  0.3419  0.3891  0.0630
11068SOL    HW134398   0.433   4.982   4.297  0.7839 -1.2745  1.8200
11068SOL    HW234399   0.352   4.988   4.425 -1.6744  0.5081  0.2918
11069SOL     OW34400   0.424   5.262   2.618 -0.3957  0.4276  0.1691
11069SOL    HW134401   0.360   5.193   2.603  0.6799 -0.3736 -1.0339
11069SOL    HW234402   0.397   5.304   2.699 -1.5534 -0.8730  0.4859
11070SOL     OW34403   0.884   2.977   6.847  0.6676 -0.2233  0.3626
11070SOL    HW134404   0.888   2.996   6.753 -0.4043 -1.7218 -0.0243
11070SOL    HW234405   0.964   3.015   6.883  1.7533 -0.7445 -1.3821
11071SOL     OW34406   5.627   4.074   4.333 -0.3475 -0.0177 -0.0779
11071SOL    HW134407   5.613   4.161   4.370 -2.3075 -0.1416 -0.3902
11071SOL    HW234408   5.551   4.023   4.364 -0.2412 -1.0701 -1.4576
11072SOL     OW34409   0.827   0.598   0.558  0.1287 -0.3207 -0.4748
11072SOL    HW134410   0.851   0.598   0.651 -2.1576 -1.9411  0.2092
11072SOL    HW234411   0.834   0.690   0.532  0.7391  0.1852  1.3163
11073SOL     OW34412   4.114   5.661   3.892 -0.1157  0.5455  0.6525
11073SOL    HW134413   4.061   5.581   3.900 -2.9775  2.3042  0.8035
11073SOL    HW234414   4.155   5.655   3.806 -1.5734 -0.4085 -0.0121
11074SOL     OW34415   2.021   1.440   6.301  0.5009  0.5540 -0.5483
11074SOL    HW134416   2.049   1.438   6.210 -1.0431 -0.1845 -1.0347
11074SOL    HW234417   1.996   1.531   6.317  0.3328  0.5900 -1.0068
11075SOL     OW34418   6.841   6.506   2.945 -0.1801  0.2669  0.0085
11075SOL    HW134419   6.836   6.483   2.852  1.0393 -0.8768  0.2089
11075SOL    HW234420   6.878   6.594   2.945 -1.6373  0.9191 -0.6258
11076SOL     OW34421   1.156   5.176   6.222  0.0812 -0.2109 -0.2811
11076SOL    HW134422   1.107   5.162   6.302 -1.5924  0.3173 -1.1629
11076SOL    HW234423   1.102   5.236   6.171  1.7093  0.4841 -1.2749
11077SOL     OW34424   1.810   6.882   4.784 -0.2331 -0.5086  0.3719
11077SOL    HW134425   1.721   6.863   4.756  0.3649  0.6505 -2.6186
11077SOL    HW234426   1.810   6.976   4.803  0.1628 -0.6860  1.3538
11078SOL     OW34427   7.226   5.755   4.357 -0.1223  0.0411  0.6730
11078SOL    HW134428   7.315   5.728   4.378  1.0718  2.0792 -1.2331
11078SOL    HW234429   7.190   5.788   4.439  0.4606 -1.7349  1.6876
11079SOL     OW34430   6.009   3.943   4.812  0.1713 -0.1929 -0.4786
11079SOL    HW134431   5.956   3.981   4.882  1.7877 -0.0935  0.7656
11079SOL    HW234432   5.976   3.983   4.732 -0.8194  0.7496  0.3696
11080SOL     OW34433   4.723   2.347   2.942  0.3475  0.3633  0.0054
11080SOL    HW134434   4.660   2.296   2.891 -0.0176  1.8914 -1.1272
11080SOL    HW234435   4.671   2.417   2.981  0.5872 -0.8360  2.6685
11081SOL     OW34436   3.924   6.661   3.845 -0.0613 -0.3839 -0.0611
11081SOL    HW134437   3.925   6.571   3.879  1.3514  0.0052  1.0497
11081SOL    HW234438   4.003   6.667   3.791  0.0351  0.2700  0.1429
11082SOL     OW34439   3.882   0.718   4.995  0.6705  0.0757 -0.3957
11082SOL    HW134440   3.949   0.773   5.037 -1.3698  1.4150  1.2992
11082SOL    HW234441   3.831   0.779   4.942 -0.4497 -0.5154 -0.0253
11083SOL     OW34442   6.407   7.540   6.045  0.2289 -0.3759  0.2984
11083SOL    HW134443   6.465   7.610   6.015 -0.8477  1.1695  1.6447
11083SOL    HW234444   6.360   7.512   5.966  0.3843  0.7230 -0.2030
11084SOL     OW34445   8.445   6.565   2.394  0.1639  0.1214 -0.3748
11084SOL    HW134446   8.506   6.596   2.460 -0.5809  0.3473  0.2254
11084SOL    HW234447   8.411   6.644   2.352 -0.2679  0.0415 -0.1877
11085SOL     OW34448   3.444   2.274   4.548 -1.2311 -0.2263 -0.6896
11085SOL    HW134449   3.436   2.181   4.568 -0.1678 -0.6437 -2.0053
11085SOL    HW234450   3.369   2.315   4.591 -2.1207 -1.7937 -0.6704
11086SOL     OW34451   2.865   5.905   5.487  0.3287  0.8451  0.1080
11086SOL    HW134452   2.787   5.941   5.444  1.2308  2.7081 -0.0821
11086SOL    HW234453   2.842   5.904   5.580 -1.0393 -1.6705 -0.1709
11087SOL     OW34454   0.555   3.815   4.940 -0.0765 -0.6317  0.0215
11087SOL    HW134455   0.472   3.815   4.989 -2.0224 -0.6648 -2.9684
11087SOL    HW234456   0.547   3.891   4.882  0.5526 -2.3369 -2.4513
11088SOL     OW34457   7.641   0.511   7.276 -0.1880  0.1634 -0.4733
11088SOL    HW134458   7.688   0.474   7.201  0.4590 -0.7212  0.3591
11088SOL    HW234459   7.564   0.553   7.237  0.7425  0.7649 -1.7587
11089SOL     OW34460   4.703   7.291   1.628  0.1675  0.7768  0.1313
11089SOL    HW134461   4.772   7.286   1.561 -0.7357 -0.9125 -0.7368
11089SOL    HW234462   4.718   7.215   1.683 -0.6692  0.7067  0.2694
11090SOL     OW34463   7.468   3.963   1.315 -0.0515  0.9218 -0.3329
11090SOL    HW134464   7.437   3.886   1.363  1.0734  1.0650  0.6845
11090SOL    HW234465   7.539   3.929   1.260  0.3029  1.1788 -0.0409
11091SOL     OW34466   6.200   6.794   6.913 -0.2392  0.5608  0.1753
11091SOL    HW134467   6.157   6.880   6.907 -1.1745  0.3670  2.9993
11091SOL    HW234468   6.128   6.732   6.920  0.4662 -0.2219  0.6076
11092SOL     OW34469   5.878   4.564   0.597  0.0584  0.7307  0.4948
11092SOL    HW134470   5.952   4.604   0.551  0.9323 -0.5276  0.7636
11092SOL    HW234471   5.878   4.607   0.683 -1.5778  3.0858 -0.5615
11093SOL     OW34472   1.830   4.770   4.844 -0.1100 -0.2816  0.1353
11093SOL    HW134473   1.846   4.676   4.844  1.7297 -0.0224  1.3341
11093SOL    HW234474   1.889   4.805   4.777  0.4361  0.1544  0.8210
11094SOL     OW34475   3.784   5.193   5.273  0.6710 -0.5315 -0.4673
11094SOL    HW134476   3.748   5.150   5.196 -1.0536 -0.6197  0.3446
11094SOL    HW234477   3.769   5.287   5.257 -2.3143 -0.6490  0.8870
11095SOL     OW34478   6.060   0.032   4.690 -0.0619  0.4013 -0.1510
11095SOL    HW134479   5.996  -0.034   4.717  0.6045 -0.5353 -0.8278
11095SOL    HW234480   6.053   0.100   4.758 -0.2612 -0.6761  0.9451
11096SOL     OW34481   2.411   5.444   3.875  0.1745  0.5872  0.2204
11096SOL    HW134482   2.415   5.531   3.914 -1.1160  0.5371  0.5241
11096SOL    HW234483   2.425   5.384   3.948  0.5336  0.5370  0.1084
11097SOL     OW34484   2.147   6.207   3.828 -0.1251  0.4265 -0.5088
11097SOL    HW134485   2.083   6.277   3.839  0.0695  0.4133  0.8516
11097SOL    HW234486   2.097   6.127   3.839  0.0778  0.4146  0.4345
11098SOL     OW34487   8.437   5.561   3.622  0.0231  0.5348  0.2228
11098SOL    HW134488   8.530   5.538   3.629 -0.2310 -1.1698 -1.2841
11098SOL    HW234489   8.425   5.586   3.530 -0.6941  2.4152  0.7879
11099SOL     OW34490   6.424   3.316   8.088  0.6114 -0.0008  0.0185
11099SOL    HW134491   6.341   3.296   8.132  1.3685 -1.8197  0.6911
11099SOL    HW234492   6.433   3.249   8.021  0.3963  1.6447 -1.7350
11100SOL     OW34493   3.535   4.904   7.590  0.9615 -0.1200 -0.3105
11100SOL    HW134494   3.494   4.824   7.556 -0.0501 -0.4106  1.4562
11100SOL    HW234495   3.463   4.966   7.596  1.3290  0.2615  0.2391
11101SOL     OW34496   8.200   5.581   6.745  0.5338  0.3580 -0.0938
11101SOL    HW134497   8.147   5.570   6.666  0.3478  1.4931 -0.1472
11101SOL    HW234498   8.290   5.576   6.714  0.4671  0.0593 -0.2531
11102SOL     OW34499   3.329   3.477   0.490  0.6117  0.4274 -0.8569
11102SOL    HW134500   3.248   3.508   0.531  1.4234  1.0000  0.3869
11102SOL    HW234501   3.309   3.473   0.397 -0.8583  0.5152 -0.5695
11103SOL     OW34502   2.758   1.701   4.832  0.1258 -0.3518  0.4937
11103SOL    HW134503   2.733   1.760   4.761  0.2925 -0.7789  0.0752
11103SOL    HW234504   2.712   1.735   4.909 -0.9477 -0.5233 -0.0513
11104SOL     OW34505   7.793   4.913   6.888  0.2503 -0.0752 -0.6325
11104SOL    HW134506   7.820   4.858   6.961  1.2074 -0.8947 -1.5574
11104SOL    HW234507   7.701   4.932   6.905  0.8734  1.2417  1.6807
11105SOL     OW34508   3.779   7.455   4.728 -0.0132 -0.2152 -0.1099
11105SOL    HW134509   3.711   7.492   4.784 -0.1325 -0.2712 -0.2152
11105SOL    HW234510   3.836   7.529   4.706 -0.0888 -0.1509 -0.0891
11106SOL     OW34511   1.819   6.620   2.766 -0.3621  0.6656  0.1686
11106SOL    HW134512   1.802   6.687   2.832  1.7958  0.8303  0.6110
11106SOL    HW234513   1.869   6.665   2.698 -0.0998 -0.1691 -0.2015
11107SOL     OW34514   5.558   2.784   2.534  0.1038 -0.2372 -0.3755
11107SOL    HW134515   5.517   2.706   2.571  0.0641  0.5193  1.2618
11107SOL    HW234516   5.489   2.850   2.536  1.0014  0.6944  1.2099
11108SOL     OW34517   4.331   4.015   7.252 -0.0310 -0.2253  0.1418
11108SOL    HW134518   4.408   3.963   7.272 -0.0054  0.0691  0.8616
11108SOL    HW234519   4.358   4.106   7.268 -1.0986 -0.2451  2.4905
11109SOL     OW34520   2.790   3.011   8.333 -0.1465 -0.1144  0.0851
11109SOL    HW134521   2.788   3.103   8.360  1.5504 -0.3582  1.2157
11109SOL    HW234522   2.857   3.007   8.265 -0.3647 -0.4953 -0.1123
11110SOL     OW34523   5.862   7.782   3.961 -0.3218  0.3147  0.3412
11110SOL    HW134524   5.936   7.791   4.020 -0.9860  0.4299  1.1862
11110SOL    HW234525   5.848   7.871   3.927  0.9370 -0.0092 -1.1186
11111SOL     OW34526   7.120   3.345   7.864 -0.5222 -0.3316 -0.0657
11111SOL    HW134527   7.099   3.434   7.892 -1.1317 -0.0574 -1.3454
11111SOL    HW234528   7.142   3.353   7.771 -0.2792 -1.4696 -0.1216
11112SOL     OW34529   0.475   0.709   5.410 -0.5609  0.5491  0.4223
11112SOL    HW134530   0.437   0.738   5.327 -1.1200 -0.8666  0.1568
11112SOL    HW234531   0.403   0.715   5.473 -0.9092 -0.8974  0.2011
11113SOL     OW34532   2.096   7.561   7.744  0.2473 -0.3316  0.1933
11113SOL    HW134533   2.151   7.483   7.734 -0.8160 -0.9823 -0.7832
11113SOL    HW234534   2.018   7.542   7.691 -0.6621  0.8097  1.0876
11114SOL     OW34535   8.400   3.055   7.565 -0.1895 -0.1064 -0.2897
11114SOL    HW134536   8.373   3.037   7.656  1.0741  1.6346  0.4900
11114SOL    HW234537   8.430   2.970   7.533 -0.2253 -0.6805  1.0950
11115SOL     OW34538   0.330   5.810   3.055  0.8027  0.0537  0.2342
11115SOL    HW134539   0.360   5.726   3.020  0.7027 -0.4193  1.2249
11115SOL    HW234540   0.398   5.873   3.028  0.3891 -0.1390 -1.3391
11116SOL     OW34541   1.110   5.779   7.296  0.0067 -0.1197 -0.2699
11116SOL    HW134542   1.159   5.725   7.357  1.1664  0.1915 -0.8954
11116SOL    HW234543   1.142   5.868   7.310 -2.2541  0.5430  1.1103
11117SOL     OW34544   1.739   7.977   6.984  0.0269 -0.2509 -0.3993
11117SOL    HW134545   1.689   7.945   6.908 -1.6799 -0.8392  0.9184
11117SOL    HW234546   1.695   8.058   7.009 -0.7747 -1.1476  1.2211
11118SOL     OW34547   5.871   6.155   4.009  0.2762 -0.1780  0.6931
11118SOL    HW134548   5.920   6.073   3.998 -0.5156 -0.7665  1.3744
11118SOL    HW234549   5.911   6.215   3.947  0.8966 -1.0780  0.1874
11119SOL     OW34550   1.366   0.162   5.418 -0.1789  0.1804 -0.1911
11119SOL    HW134551   1.327   0.236   5.464 -0.6635 -0.3999  0.3606
11119SOL    HW234552   1.437   0.200   5.367  0.8243  0.7777  1.5456
11120SOL     OW34553   8.494   4.120   2.046  0.0903 -0.5348 -0.2603
11120SOL    HW134554   8.521   4.209   2.068  2.1065 -0.4291 -2.6923
11120SOL    HW234555   8.529   4.066   2.117  1.5897  0.3057 -0.3151
11121SOL     OW34556   3.606   5.867   5.187 -0.1401  0.2625 -0.5086
11121SOL    HW134557   3.629   5.780   5.155 -0.5794 -0.1350  0.2188
11121SOL    HW234558   3.539   5.898   5.126 -0.9851 -0.4931  0.0034
11122SOL     OW34559   6.643   7.349   1.332  0.0708 -0.1025 -0.2750
11122SOL    HW134560   6.554   7.315   1.327  0.3467 -0.7788 -0.8881
11122SOL    HW234561   6.668   7.366   1.241  0.9046 -0.8828 -0.2165
11123SOL     OW34562   1.049   1.119   1.925 -0.1241  0.1680 -0.5541
11123SOL    HW134563   0.994   1.057   1.974 -0.0954 -0.5506 -1.3874
11123SOL    HW234564   1.081   1.068   1.850 -1.3828  1.5833 -2.1641
11124SOL     OW34565   0.295   4.825   6.130 -0.3842 -0.9735  0.6838
11124SOL    HW134566   0.285   4.920   6.131 -1.2765 -1.0470  0.2340
11124SOL    HW234567   0.371   4.809   6.075 -1.3806 -0.5780 -0.8927
11125SOL     OW34568   1.256   7.609   5.184  0.3990 -0.2215 -0.2734
11125SOL    HW134569   1.227   7.698   5.205  0.2440 -0.5714  1.0564
11125SOL    HW234570   1.212   7.589   5.101 -1.8088 -0.0729  0.7765
11126SOL     OW34571   2.622   4.671   7.719  0.0934  0.3495  0.1143
11126SOL    HW134572   2.627   4.618   7.640 -0.2045  1.2741 -0.5456
11126SOL    HW234573   2.541   4.645   7.761  0.3578 -0.2977  0.2298
11127SOL     OW34574   1.739   0.472   1.765 -0.5226 -0.2233  0.1780
11127SOL    HW134575   1.689   0.443   1.841 -1.5421 -0.2463 -0.4752
11127SOL    HW234576   1.820   0.422   1.769  0.2992  1.1607  2.2951
11128SOL     OW34577   0.680   1.039   1.366 -0.3055  0.4233  0.2400
11128SOL    HW134578   0.710   1.125   1.339  0.5878  0.4490  1.2386
11128SOL    HW234579   0.603   1.056   1.420  1.2420  0.8244  2.4407
11129SOL     OW34580   2.441   3.294   7.038 -0.7991 -0.3321 -0.3462
11129SOL    HW134581   2.407   3.206   7.024 -0.7088 -0.4690  0.2854
11129SOL    HW234582   2.364   3.346   7.061 -0.6914 -0.4944  0.4033
11130SOL     OW34583   2.309   2.674   7.270 -0.6935  0.3181  0.1115
11130SOL    HW134584   2.314   2.580   7.287 -0.0327  0.2243 -0.5228
11130SOL    HW234585   2.340   2.715   7.350  3.1940 -0.1123 -0.9640
11131SOL     OW34586   0.176   3.648   7.079  0.9326  0.0276 -0.2270
11131SOL    HW134587   0.131   3.709   7.138  1.0162 -0.2876  0.1683
11131SOL    HW234588   0.212   3.581   7.137  0.9361 -0.3392 -0.6483
11132SOL     OW34589   1.133   0.460   6.062 -0.1558 -1.0546  0.0596
11132SOL    HW134590   1.053   0.431   6.107 -0.2765  2.1413  2.2421
11132SOL    HW234591   1.116   0.442   5.970 -2.3775 -2.6179  0.6743
11133SOL     OW34592   8.210   2.643   6.171 -0.2239  0.2552 -0.1016
11133SOL    HW134593   8.241   2.729   6.143 -0.6568 -0.2299 -2.3271
11133SOL    HW234594   8.162   2.659   6.252 -0.9428  2.2470 -0.8678
11134SOL     OW34595   4.170   1.749   2.239 -0.0006 -0.1238  0.3736
11134SOL    HW134596   4.099   1.696   2.203  2.5008 -2.4232 -1.6571
11134SOL    HW234597   4.165   1.735   2.334 -1.6591 -0.9685  0.1953
11135SOL     OW34598   2.717   3.065   0.580  0.7406 -0.1386  0.6464
11135SOL    HW134599   2.661   3.015   0.640 -0.0291  2.3467  2.1642
11135SOL    HW234600   2.801   3.070   0.626  0.1840  1.6722  1.5600
11136SOL     OW34601   2.548   7.224   0.336 -0.2869  0.6508 -0.1839
11136SOL    HW134602   2.554   7.143   0.387  0.5290  0.3557 -0.7260
11136SOL    HW234603   2.566   7.197   0.246 -0.7783  1.3168 -0.4884
11137SOL     OW34604   4.373   2.658   7.323 -0.1189  0.6183  0.5399
11137SOL    HW134605   4.335   2.703   7.247  0.6497  3.4690  1.7039
11137SOL    HW234606   4.307   2.593   7.347 -1.0236  0.6048 -1.6719
11138SOL     OW34607   0.041   3.634   1.011 -0.0841 -0.1496  0.2249
11138SOL    HW134608   0.136   3.629   1.020  0.0216  1.7018  0.5521
11138SOL    HW234609   0.007   3.561   1.062  1.1652 -1.1944 -0.3883
11139SOL     OW34610   4.721   4.862   5.382 -0.0539  0.0629 -0.5238
11139SOL    HW134611   4.816   4.871   5.387 -0.0950 -0.0494  3.7107
11139SOL    HW234612   4.688   4.952   5.378  0.2960  0.4979  3.0119
11140SOL     OW34613   6.538   4.529   7.139  0.3637 -0.4261 -0.2471
11140SOL    HW134614   6.490   4.490   7.212  0.5817 -0.5199 -0.1519
11140SOL    HW234615   6.630   4.520   7.164  0.4502 -0.7378 -0.6768
11141SOL     OW34616   1.887   6.304   3.860 -0.6035  0.1705  0.2460
11141SOL    HW134617   1.844   6.255   3.930  0.8113 -0.6629  0.5683
11141SOL    HW234618   1.904   6.390   3.897 -1.2714  0.2533  0.3745
11142SOL     OW34619   1.741   4.776   6.420  0.3006  0.2540 -0.0744
11142SOL    HW134620   1.676   4.845   6.405  1.1016  1.0090 -0.2045
11142SOL    HW234621   1.712   4.703   6.365 -1.3184 -0.0512  1.1011
11143SOL     OW34622   8.306   7.133   2.694  0.4127 -0.3217 -0.3223
11143SOL    HW134623   8.353   7.212   2.666 -0.8075  0.7769  0.5667
11143SOL    HW234624   8.223   7.136   2.646 -0.3125 -0.1754  0.8945
11144SOL     OW34625   6.338   7.185   7.542 -0.1805 -0.5234 -0.0716
11144SOL    HW134626   6.323   7.253   7.476 -0.0373 -0.4519 -0.0321
11144SOL    HW234627   6.346   7.104   7.492  1.6112 -0.2427 -0.3039
11145SOL     OW34628   4.461   5.236   0.342  0.3810 -0.2955 -0.2606
11145SOL    HW134629   4.547   5.207   0.313  0.4818 -1.2667  0.9189
11145SOL    HW234630   4.431   5.166   0.401 -2.5057 -1.4875 -2.8667
11146SOL     OW34631   7.509   6.300   5.131 -0.1020  0.4752 -0.2388
11146SOL    HW134632   7.548   6.227   5.083 -1.7070 -0.2874 -0.4420
11146SOL    HW234633   7.544   6.292   5.220 -3.5474 -3.3762  1.0803
11147SOL     OW34634   1.813   6.927   2.857 -0.3518 -0.3557 -0.0157
11147SOL    HW134635   1.863   6.922   2.776  2.6308  2.9344  1.3345
11147SOL    HW234636   1.729   6.964   2.832  0.4929  0.5403 -1.6646
11148SOL     OW34637   4.634   3.090   0.189  0.7885 -0.5601 -0.1613
11148SOL    HW134638   4.568   3.134   0.136  1.5249  0.2428 -0.4441
11148SOL    HW234639   4.715   3.138   0.171  1.3050 -1.0675  0.7308
11149SOL     OW34640   0.525   5.014   6.624 -0.7067  0.1888 -0.0183
11149SOL    HW134641   0.474   4.950   6.576 -0.7402  2.6272 -3.6480
11149SOL    HW234642   0.478   5.097   6.611  1.7081  1.7330  0.4639
11150SOL     OW34643   2.321   8.459   1.482  0.7886  0.5412  0.9130
11150SOL    HW134644   2.358   8.402   1.549 -0.5904 -1.7123 -0.1127
11150SOL    HW234645   2.237   8.486   1.518 -0.8647 -2.2443 -0.4967
11151SOL     OW34646   1.761   7.993   0.050  0.2317 -0.0907  0.0417
11151SOL    HW134647   1.670   7.962   0.046 -0.5112  1.9469  0.2763
11151SOL    HW234648   1.793   7.960   0.134 -0.9147  0.7468  0.8355
11152SOL     OW34649   6.990   5.900   6.660 -0.3509 -0.1530 -0.0863
11152SOL    HW134650   6.940   5.972   6.622 -0.5671  0.8132  1.9375
11152SOL    HW234651   7.071   5.898   6.610 -1.3583 -0.1487 -1.7939
11153SOL     OW34652   6.134   7.211   3.809  0.5128  0.0586  0.3272
11153SOL    HW134653   6.064   7.265   3.773  0.4619 -0.4610 -0.3525
11153SOL    HW234654   6.094   7.169   3.885 -0.3981 -1.4166 -0.9198
11154SOL     OW34655   3.244   3.396   7.514 -0.1995 -0.4892  0.2360
11154SOL    HW134656   3.334   3.394   7.480  1.0214  0.6122  3.0859
11154SOL    HW234657   3.235   3.313   7.561  0.0412  0.1581  1.4756
11155SOL     OW34658   1.890   4.926   3.827 -0.0846  0.3289  0.2603
11155SOL    HW134659   1.877   4.946   3.735  1.1113 -0.2447 -0.0426
11155SOL    HW234660   1.850   5.000   3.873 -1.5196  0.1768 -0.6707
11156SOL     OW34661   6.726   4.754   0.156 -0.3858  0.5475 -0.1022
11156SOL    HW134662   6.711   4.790   0.243  1.8229 -0.0538  0.5865
11156SOL    HW234663   6.820   4.766   0.140 -0.2941 -1.3858 -1.4416
11157SOL     OW34664   2.251   7.627   4.526 -0.1745  0.1521  0.5027
11157SOL    HW134665   2.283   7.667   4.607  1.4572  1.5060 -0.7298
11157SOL    HW234666   2.223   7.701   4.473  1.2190 -0.4525 -1.1484
11158SOL     OW34667   5.895   4.002   5.060 -0.5195  0.1179  0.3451
11158SOL    HW134668   5.918   4.008   5.153  1.6077  1.8857 -0.2156
11158SOL    HW234669   5.845   4.081   5.042 -0.2906  0.1571 -0.1567
11159SOL     OW34670   5.833   6.917   6.918  0.3424 -0.0491 -0.4079
11159SOL    HW134671   5.845   6.864   6.996  1.1841 -0.3309 -0.7193
11159SOL    HW234672   5.772   6.867   6.864  0.4036 -0.2511 -0.2893
11160SOL     OW34673   6.381   1.714   3.597 -0.1357 -0.3706  0.6805
11160SOL    HW134674   6.388   1.729   3.502 -1.3176  0.0076  0.6421
11160SOL    HW234675   6.418   1.626   3.610 -1.8178 -1.2967 -0.4331
11161SOL     OW34676   0.123   0.317   8.231 -0.1914 -0.1994  0.1067
11161SOL    HW134677   0.030   0.298   8.220 -0.4565  0.0174  1.6716
11161SOL    HW234678   0.168   0.255   8.173 -1.2881 -0.6424 -0.2917
11162SOL     OW34679   6.925   0.495   8.532  0.4826 -0.4851 -0.4508
11162SOL    HW134680   6.907   0.475   8.624  0.7330  1.9164  0.1964
11162SOL    HW234681   6.851   0.457   8.485  0.2074 -1.5356  0.7578
11163SOL     OW34682   7.082   8.060   6.135  0.4620  0.0374 -0.0418
11163SOL    HW134683   7.146   7.999   6.099 -0.5976 -1.5370  0.6227
11163SOL    HW234684   7.132   8.113   6.197  1.1131 -1.3263  0.6616
11164SOL     OW34685   1.046   2.012   0.911  0.2779  0.3942  0.5243
11164SOL    HW134686   1.070   1.959   0.987 -0.8377 -1.7685 -0.5255
11164SOL    HW234687   1.127   2.018   0.860  0.0233 -2.1321 -0.3221
11165SOL     OW34688   8.387   1.220   4.416 -0.2070 -0.0258  0.2006
11165SOL    HW134689   8.372   1.206   4.323  1.6458 -1.2181  0.0249
11165SOL    HW234690   8.480   1.245   4.422 -0.3862  0.3977  1.6909
11166SOL     OW34691   8.091   4.546   8.600  0.0086 -0.5710 -0.5225
11166SOL    HW134692   8.107   4.486   8.526  1.4123  1.6499 -2.1642
11166SOL    HW234693   8.047   4.621   8.561 -1.0402 -0.1675  1.3297
11167SOL     OW34694   3.525   4.869   6.776 -0.0330 -0.3725  0.2724
11167SOL    HW134695   3.617   4.881   6.800  0.6969 -0.3881 -2.3027
11167SOL    HW234696   3.477   4.888   6.857  2.0646  1.9667  1.0960
11168SOL     OW34697   0.425   6.724   1.847 -1.2026  0.5139  0.2407
11168SOL    HW134698   0.415   6.630   1.863 -0.9379  0.3851 -0.3125
11168SOL    HW234699   0.482   6.754   1.917 -0.4303  0.0522 -0.1729
11169SOL     OW34700   7.545   2.240   0.297  0.1663  0.6272  0.5083
11169SOL    HW134701   7.569   2.266   0.386 -1.4228  0.7668  0.9236
11169SOL    HW234702   7.522   2.322   0.253 -0.6084  0.4125  0.4847
11170SOL     OW34703   7.424   7.258   0.418  0.1692  0.1726 -0.5960
11170SOL    HW134704   7.425   7.214   0.503 -0.1197  0.9869 -0.1629
11170SOL    HW234705   7.417   7.351   0.439  0.5105  0.4136 -1.5040
11171SOL     OW34706   2.526   5.664   4.330  0.7342  0.1042  0.6881
11171SOL    HW134707   2.607   5.706   4.300  0.5808 -0.3049 -0.3122
11171SOL    HW234708   2.458   5.729   4.315  0.9722  0.8045  2.3755
11172SOL     OW34709   2.442   5.789   3.593  0.3438 -0.3839  0.2434
11172SOL    HW134710   2.415   5.709   3.638  0.1833 -1.3671 -1.5100
11172SOL    HW234711   2.472   5.760   3.506 -0.6193  1.5354 -0.8120
11173SOL     OW34712   8.216   7.783   8.177  0.2337  0.5005 -0.0369
11173SOL    HW134713   8.132   7.751   8.211 -0.0159  0.5227 -0.6250
11173SOL    HW234714   8.267   7.703   8.159  0.6141  0.4962  0.9759
11174SOL     OW34715   0.478   2.122   3.120 -0.4671 -0.4279 -0.3400
11174SOL    HW134716   0.571   2.132   3.138 -0.3925  0.0482 -0.9795
11174SOL    HW234717   0.447   2.211   3.103 -0.9198 -0.6485 -0.6946
11175SOL     OW34718   2.392   5.122   0.732  0.0379 -0.5378  0.2013
11175SOL    HW134719   2.390   5.027   0.747 -2.6864 -0.4591  0.8209
11175SOL    HW234720   2.329   5.136   0.661  1.8273  0.6745 -1.2537
11176SOL     OW34721   6.808   7.759   3.861  0.5206  0.0298  0.8050
11176SOL    HW134722   6.745   7.694   3.893  0.9224 -0.1290  1.2740
11176SOL    HW234723   6.753   7.831   3.829  0.0852 -0.3329  0.7217
11177SOL     OW34724   6.971   6.626   1.759 -0.3545  0.0963  0.1687
11177SOL    HW134725   7.046   6.680   1.734  0.0954 -1.0642 -1.1590
11177SOL    HW234726   7.008   6.538   1.769 -1.3682 -0.3041  0.5025
11178SOL     OW34727   6.006   3.476   6.631 -0.0626  0.0497 -0.1661
11178SOL    HW134728   6.002   3.548   6.694 -1.0361  0.6845 -0.9253
11178SOL    HW234729   5.930   3.421   6.652 -0.6383  0.4902 -1.0197
11179SOL     OW34730   2.250   3.908   7.944  0.4414 -0.4949 -0.5228
11179SOL    HW134731   2.218   3.861   8.021 -0.5558 -0.6729 -1.0337
11179SOL    HW234732   2.233   3.849   7.871 -0.8211  0.6255 -1.1761
11180SOL     OW34733   1.772   0.241   8.494 -0.5247  0.0754 -0.7267
11180SOL    HW134734   1.856   0.198   8.509  0.4460  1.0963 -2.7496
11180SOL    HW234735   1.749   0.281   8.579  1.0315 -0.2295 -0.1397
11181SOL     OW34736   6.582   8.589   5.752 -0.0573  0.1490 -0.4655
11181SOL    HW134737   6.538   8.614   5.833  0.5976 -1.6644  0.5077
11181SOL    HW234738   6.675   8.601   5.771  0.2563 -2.3384 -0.1122
11182SOL     OW34739   4.322   4.622   3.224 -0.0087  0.0148 -0.4815
11182SOL    HW134740   4.288   4.664   3.144  0.0899 -0.3982 -0.7423
11182SOL    HW234741   4.348   4.696   3.280 -1.9294  0.3823  0.0002
11183SOL     OW34742   6.439   3.965   3.774  0.1453  0.6108  1.0718
11183SOL    HW134743   6.490   3.921   3.706 -1.4555  1.4113 -0.7481
11183SOL    HW234744   6.475   4.054   3.777 -0.3492  0.8284  0.6370
11184SOL     OW34745   1.138   7.441   5.753 -0.0759 -0.2427 -0.2526
11184SOL    HW134746   1.079   7.380   5.797 -0.1511 -1.0311 -1.3970
11184SOL    HW234747   1.080   7.511   5.720  0.0139  0.4863  1.0788
11185SOL     OW34748   3.129   5.738   1.345 -0.2164  0.2014 -0.2997
11185SOL    HW134749   3.184   5.672   1.387 -0.0697  0.8664  0.5742
11185SOL    HW234750   3.050   5.690   1.318 -0.4177 -0.1927  0.9367
11186SOL     OW34751   7.829   8.600   3.587  0.1044 -0.2923  0.1260
11186SOL    HW134752   7.807   8.508   3.571 -1.6060  0.5657 -3.5117
11186SOL    HW234753   7.748   8.640   3.618  0.0598  0.4689 -0.9163
11187SOL     OW34754   1.927   5.753   5.990 -0.1791 -0.5175 -0.3590
11187SOL    HW134755   1.912   5.710   6.074 -0.4848 -0.7234 -0.5168
11187SOL    HW234756   1.899   5.844   6.005 -2.4181 -1.0533 -0.8556
11188SOL     OW34757   7.589   5.961   4.437 -0.4148 -0.1977  0.0196
11188SOL    HW134758   7.655   6.028   4.452 -1.8657  1.3735 -0.2555
11188SOL    HW234759   7.514   5.989   4.491 -1.1618 -1.4296 -0.3442
11189SOL     OW34760   6.074   6.368   6.009 -0.5381  0.0500  0.1019
11189SOL    HW134761   5.987   6.407   5.998  0.2727  2.2103  0.7399
11189SOL    HW234762   6.063   6.276   5.984 -2.6032  0.6505 -1.4825
11190SOL     OW34763   6.822   5.959   1.900 -0.1157  0.1270 -0.2102
11190SOL    HW134764   6.756   6.024   1.874  1.7107  1.6031 -1.4428
11190SOL    HW234765   6.857   5.926   1.817  1.2550 -0.0105  0.3966
11191SOL     OW34766   8.016   8.340   5.437  0.1991  0.0096 -0.0726
11191SOL    HW134767   8.111   8.335   5.426  0.2177  0.9834 -0.3980
11191SOL    HW234768   7.990   8.419   5.390 -0.5147  0.9485  1.7956
11192SOL     OW34769   2.950   2.555   0.839 -0.8812  0.4133 -0.0985
11192SOL    HW134770   3.008   2.632   0.844 -1.1066  0.5266  1.0942
11192SOL    HW234771   2.864   2.591   0.820 -0.3433  0.1121 -4.0340
11193SOL     OW34772   2.532   0.455   4.533 -0.5827  0.5060 -0.3317
11193SOL    HW134773   2.518   0.399   4.610  1.8375 -1.3657 -1.1099
11193SOL    HW234774   2.557   0.539   4.570 -1.6089  0.3168  0.9022
11194SOL     OW34775   3.969   1.899   0.302  0.2954  0.6885  0.1194
11194SOL    HW134776   3.980   1.980   0.252 -0.5085  1.0075  0.4445
11194SOL    HW234777   4.049   1.849   0.285 -0.1260  0.5821 -1.8720
11195SOL     OW34778   7.174   3.334   1.314  0.3863 -0.3681  0.2097
11195SOL    HW134779   7.140   3.360   1.228  0.4881  0.8892  0.5326
11195SOL    HW234780   7.119   3.261   1.340 -2.7460  2.1017  1.0885
11196SOL     OW34781   7.933   6.038   1.221  0.3634  0.0987 -0.2048
11196SOL    HW134782   7.874   5.967   1.246 -0.5669  0.5639 -0.9996
11196SOL    HW234783   7.994   6.046   1.295 -0.9829  0.0451  0.9646
11197SOL     OW34784   4.951   8.431   0.456  0.1148 -0.2250 -0.2115
11197SOL    HW134785   4.980   8.504   0.401  0.3000 -0.3891 -0.3341
11197SOL    HW234786   4.856   8.430   0.448 -0.1423  1.5036  1.6644
11198SOL     OW34787   1.015   2.288   1.973 -0.1214 -0.2567  0.8869
11198SOL    HW134788   0.986   2.204   1.937 -0.0794  0.2839 -0.4674
11198SOL    HW234789   1.028   2.271   2.066  0.6386 -1.9586  0.5086
11199SOL     OW34790   7.324   5.743   7.015 -0.5544 -0.1499 -0.7373
11199SOL    HW134791   7.253   5.800   7.044  0.4621  0.4501  0.6891
11199SOL    HW234792   7.403   5.794   7.030  0.4242 -2.0157  0.9547
11200SOL     OW34793   3.564   4.572   3.552 -0.2835 -0.0023  0.1167
11200SOL    HW134794   3.533   4.491   3.593 -0.6211 -0.5473 -1.1585
11200SOL    HW234795   3.488   4.630   3.553 -0.5538 -0.3409 -0.5387
11201SOL     OW34796   6.584   3.219   4.051  0.0609 -0.3656 -0.3137
11201SOL    HW134797   6.627   3.250   4.130  0.3768 -0.4307 -0.4576
11201SOL    HW234798   6.497   3.259   4.053  0.2168 -0.0348 -0.1429
11202SOL     OW34799   0.729   4.115   0.440 -0.0118  0.0573 -0.1334
11202SOL    HW134800   0.747   4.195   0.489 -1.8753  2.0616 -2.4338
11202SOL    HW234801   0.700   4.052   0.506 -1.9617  2.4390  1.4847
11203SOL     OW34802   1.296   6.284   6.753 -0.4363 -0.2217 -0.1469
11203SOL    HW134803   1.383   6.318   6.774 -0.5017  0.9482 -1.5800
11203SOL    HW234804   1.313   6.206   6.700 -0.2240  0.4320 -1.0698
11204SOL     OW34805   4.835   6.449   1.490 -0.3309  0.0680 -0.0078
11204SOL    HW134806   4.755   6.418   1.448 -0.8257  0.0963  0.8975
11204SOL    HW234807   4.875   6.507   1.425 -0.7992 -0.3126 -0.6460
11205SOL     OW34808   4.228   6.529   3.325 -0.2750 -0.2065  0.1786
11205SOL    HW134809   4.215   6.547   3.231  1.4932  1.0780  0.1266
11205SOL    HW234810   4.173   6.593   3.369  2.0002  2.0266 -0.0328
11206SOL     OW34811   1.787   3.869   5.836  0.1932 -0.1252 -0.3146
11206SOL    HW134812   1.724   3.824   5.779 -0.3139 -0.2034  0.3060
11206SOL    HW234813   1.800   3.809   5.909 -2.8397  1.8873  2.1351
11207SOL     OW34814   2.336   2.402   0.205 -0.1604  0.4556 -0.4243
11207SOL    HW134815   2.404   2.334   0.201 -1.1568 -0.6707  1.0080
11207SOL    HW234816   2.265   2.368   0.151 -0.9124  0.0504  0.8053
11208SOL     OW34817   4.136   6.508   3.066 -0.4520 -0.2630 -0.3464
11208SOL    HW134818   4.087   6.448   3.123 -0.9319  0.0042 -0.4733
11208SOL    HW234819   4.070   6.568   3.032  0.1581  0.9449  0.5326
11209SOL     OW34820   3.076   7.242   4.021 -0.0396  0.6348  0.2203
11209SOL    HW134821   3.103   7.159   4.061 -0.8585  0.3694  0.2394
11209SOL    HW234822   3.096   7.232   3.928 -1.7441 -0.2876 -0.0836
11210SOL     OW34823   1.315   1.097   3.157 -0.5372 -0.2376 -0.5267
11210SOL    HW134824   1.316   1.179   3.207 -1.2054 -1.1919  1.1226
11210SOL    HW234825   1.222   1.081   3.140 -0.4716 -0.9823 -0.2303
11211SOL     OW34826   1.455   3.511   3.462  0.2957  0.2688 -0.3761
11211SOL    HW134827   1.536   3.462   3.449  1.6274  2.0234  0.7599
11211SOL    HW234828   1.425   3.485   3.549  2.0408  2.6620  1.0774
11212SOL     OW34829   3.069   4.742   6.087 -0.2358  0.0928 -0.6839
11212SOL    HW134830   3.025   4.723   6.170  0.6749 -0.8112 -0.3944
11212SOL    HW234831   3.147   4.687   6.088 -0.7574 -0.7507 -2.6284
11213SOL     OW34832   5.010   1.910   8.412  0.1828 -0.1502 -0.0506
11213SOL    HW134833   4.993   1.833   8.467 -1.5565 -0.4731 -0.9770
11213SOL    HW234834   5.105   1.921   8.416  0.4590 -2.2142  0.2876
11214SOL     OW34835   1.977   6.594   5.882  0.0520  0.6912  0.1092
11214SOL    HW134836   1.951   6.637   5.964 -0.0545  2.7903 -0.9716
11214SOL    HW234837   2.045   6.650   5.846 -0.0921 -0.0550 -1.3801
11215SOL     OW34838   4.248   1.520   2.650 -0.1354  0.4617  0.3309
11215SOL    HW134839   4.338   1.547   2.666 -0.4079  0.5281  1.9707
11215SOL    HW234840   4.253   1.456   2.579  0.7270  3.5299 -2.6562
11216SOL     OW34841   1.620   8.383   7.597  0.5581 -0.3800  0.6964
11216SOL    HW134842   1.561   8.407   7.526 -0.6799 -0.0149  1.8064
11216SOL    HW234843   1.691   8.447   7.594 -0.5108  0.8489  0.9920
11217SOL     OW34844   4.889   6.011   1.250 -0.4582 -0.1057 -0.1213
11217SOL    HW134845   4.825   6.025   1.320 -0.9693 -1.3330 -0.3195
11217SOL    HW234846   4.835   6.006   1.170  0.1094  1.2179 -0.6121
11218SOL     OW34847   7.030   7.958   2.874 -0.3281 -0.6774  0.1454
11218SOL    HW134848   7.125   7.967   2.866 -0.5385  1.3762 -0.6154
11218SOL    HW234849   7.006   8.021   2.942 -1.2160 -0.6675 -0.1718
11219SOL     OW34850   7.107   5.821   2.140  0.2666 -0.3428 -0.0261
11219SOL    HW134851   7.036   5.789   2.196  1.1316 -1.2609  0.5870
11219SOL    HW234852   7.088   5.914   2.128 -0.5623 -0.3834  0.8554
11220SOL     OW34853   7.254   2.812   7.990  0.1519 -0.9245  0.6948
11220SOL    HW134854   7.186   2.863   7.947 -0.5392  0.5594  3.3371
11220SOL    HW234855   7.336   2.854   7.965 -0.0227 -1.3940 -0.7697
11221SOL     OW34856   2.180   7.874   5.748  0.3780 -0.2909  0.1909
11221SOL    HW134857   2.140   7.788   5.759  1.5250 -0.8518  0.2153
11221SOL    HW234858   2.214   7.896   5.835  0.5389 -0.0547  0.0698
11222SOL     OW34859   8.173   8.122   2.749 -0.0964  0.1570  0.4443
11222SOL    HW134860   8.125   8.052   2.793  0.3062 -1.1664 -1.1180
11222SOL    HW234861   8.168   8.099   2.656  1.5885  1.2179  0.0511
11223SOL     OW34862   1.890   5.493   4.833 -0.0124  0.7243  0.5251
11223SOL    HW134863   1.975   5.448   4.840 -1.6094 -2.6817  0.0157
11223SOL    HW234864   1.846   5.473   4.915 -1.1943  0.3828 -0.1693
11224SOL     OW34865   0.703   2.420   3.963  0.1551 -0.4730  0.1805
11224SOL    HW134866   0.732   2.505   3.930  2.8011 -0.7938  1.4332
11224SOL    HW234867   0.691   2.366   3.885  2.3411 -0.0713 -0.4869
11225SOL     OW34868   2.408   3.935   0.868 -0.1661 -0.2509 -0.0349
11225SOL    HW134869   2.408   3.876   0.792 -0.6825 -0.8965  0.4472
11225SOL    HW234870   2.392   4.022   0.832 -1.9359 -0.7425 -0.5431
11226SOL     OW34871   5.421   7.973   1.368 -0.1708 -0.3184 -0.5368
11226SOL    HW134872   5.396   7.883   1.346  2.1701 -0.3630 -3.6490
11226SOL    HW234873   5.473   7.964   1.448 -1.6486 -1.4055  0.3616
11227SOL     OW34874   2.416   5.082   1.849  0.7623 -0.5179 -0.3962
11227SOL    HW134875   2.481   5.033   1.898  0.5535 -0.3695  0.0369
11227SOL    HW234876   2.432   5.059   1.758 -1.0683 -3.5666 -0.0845
11228SOL     OW34877   2.113   5.920   3.876 -0.0602 -0.3377 -0.6409
11228SOL    HW134878   2.140   5.903   3.966  1.2615  2.3581 -0.4529
11228SOL    HW234879   2.161   5.855   3.824  1.4004 -0.0989  0.3557
11229SOL     OW34880   2.935   6.126   4.109  0.2549  0.1314 -0.0737
11229SOL    HW134881   2.937   6.158   4.018 -0.3244  1.7636  0.4488
11229SOL    HW234882   2.940   6.206   4.162  1.5336 -0.8361  1.3608
11230SOL     OW34883   1.949   4.122   6.069 -0.1270  0.3038 -0.6076
11230SOL    HW134884   2.020   4.174   6.030 -0.1835  0.6122 -0.3011
11230SOL    HW234885   1.973   4.115   6.161  0.1830 -0.7170 -0.7555
11231SOL     OW34886   6.554   7.629   1.638  0.2241  0.2697 -0.1159
11231SOL    HW134887   6.472   7.642   1.687  0.7378  1.5975  0.4377
11231SOL    HW234888   6.538   7.668   1.553 -0.2836 -1.0367 -0.6538
11232SOL     OW34889   8.106   5.992   4.515 -0.2725  0.2692  0.5424
11232SOL    HW134890   8.182   6.005   4.573 -0.5380  0.1828  0.9136
11232SOL    HW234891   8.125   5.911   4.468  0.1858  0.6149  0.1233
11233SOL     OW34892   0.037   0.644   6.474 -0.6606  0.6465  0.2876
11233SOL    HW134893  -0.033   0.616   6.416  0.0368 -2.4336  0.7510
11233SOL    HW234894  -0.008   0.679   6.551 -1.6233  0.4586 -0.1769
11234SOL     OW34895   5.387   3.510   2.559 -0.0092 -0.1676  0.3886
11234SOL    HW134896   5.333   3.506   2.637 -0.0067  2.2102  0.5844
11234SOL    HW234897   5.369   3.596   2.521  0.8727 -0.7880 -1.5874
11235SOL     OW34898   3.590   8.147   6.218  0.0654 -0.1723  0.1589
11235SOL    HW134899   3.545   8.085   6.276  0.2962 -1.0488 -0.5864
11235SOL    HW234900   3.679   8.114   6.212 -0.1459 -0.5377 -1.2967
11236SOL     OW34901   2.583   6.333   4.281 -0.0322 -0.4328  0.1057
11236SOL    HW134902   2.573   6.412   4.227  0.9306 -0.4876 -0.1720
11236SOL    HW234903   2.629   6.363   4.359 -0.6942 -0.5104  0.5276
11237SOL     OW34904   3.287   1.255   1.613 -0.4761  0.2646  0.0437
11237SOL    HW134905   3.231   1.290   1.543  0.2142 -0.1097 -0.7148
11237SOL    HW234906   3.284   1.322   1.681 -0.0451  1.3085 -0.9332
11238SOL     OW34907   4.359   3.072   5.854  0.1407  0.3034  1.0981
11238SOL    HW134908   4.392   2.992   5.895  0.6847  0.0180  0.1207
11238SOL    HW234909   4.370   3.140   5.921  0.2632 -0.3124  1.7095
11239SOL     OW34910   5.009   5.295   7.392 -0.8031 -0.1197 -0.4859
11239SOL    HW134911   5.081   5.342   7.434  0.7851 -0.2653 -2.8619
11239SOL    HW234912   5.011   5.325   7.301 -3.1320 -0.8944 -0.8503
11240SOL     OW34913   3.453   8.332   1.024  0.3486 -0.6179 -0.0846
11240SOL    HW134914   3.402   8.304   1.100 -2.5597  2.0906 -0.8263
11240SOL    HW234915   3.502   8.409   1.055  0.8215 -0.7836 -0.4070
11241SOL     OW34916   0.262   1.098   6.318 -0.1265  0.0747  0.2560
11241SOL    HW134917   0.350   1.099   6.354  0.5181  0.7313 -1.2495
11241SOL    HW234918   0.207   1.065   6.389  1.2460  0.1437  1.3869
11242SOL     OW34919   0.222   2.052   0.395  0.0915  0.6522 -0.0506
11242SOL    HW134920   0.296   2.019   0.345 -0.1309  0.5236 -0.2965
11242SOL    HW234921   0.150   2.056   0.332 -0.5783 -0.8976  0.5788
11243SOL     OW34922   6.224   4.798   0.891  0.0037  0.0769 -0.2348
11243SOL    HW134923   6.187   4.711   0.874 -2.6944  1.3792 -1.5064
11243SOL    HW234924   6.194   4.820   0.980  0.6352 -0.2339  0.0630
11244SOL     OW34925   7.864   7.696   2.968 -0.2241 -0.1128 -0.1324
11244SOL    HW134926   7.949   7.711   3.008 -0.4638  1.9043 -0.2551
11244SOL    HW234927   7.801   7.735   3.028 -0.7982  0.8181 -1.2823
11245SOL     OW34928   2.555   6.473   7.559 -0.1681 -0.4707 -0.0356
11245SOL    HW134929   2.631   6.447   7.611 -0.1203 -0.5013 -0.1211
11245SOL    HW234930   2.483   6.421   7.595  0.1277 -1.5054 -0.8875
11246SOL     OW34931   5.146   3.392   4.448 -0.1914 -0.3933  0.1056
11246SOL    HW134932   5.226   3.341   4.435  1.3667  1.9688 -0.2582
11246SOL    HW234933   5.119   3.418   4.360 -0.2580  0.3630  0.3392
11247SOL     OW34934   5.145   3.232   2.890 -0.0491 -1.4113  0.3615
11247SOL    HW134935   5.169   3.139   2.899  2.3824 -1.2300 -2.4717
11247SOL    HW234936   5.107   3.237   2.802 -0.2377  0.2560  0.5143
11248SOL     OW34937   8.256   4.879   3.448 -0.1259 -0.5249  0.4829
11248SOL    HW134938   8.339   4.923   3.429 -0.5666 -0.4274 -1.4941
11248SOL    HW234939   8.189   4.946   3.434 -0.6223 -1.0264  0.4017
11249SOL     OW34940   2.968   5.798   0.443 -0.0181  0.3466 -0.0020
11249SOL    HW134941   2.981   5.726   0.382  1.6917  0.0395  0.6514
11249SOL    HW234942   2.960   5.876   0.387  1.5450  0.0812 -0.6656
11250SOL     OW34943   7.114   3.923   1.463 -0.0078  0.0821  0.1892
11250SOL    HW134944   7.100   3.985   1.535  0.1590  0.5440 -0.1641
11250SOL    HW234945   7.029   3.917   1.420 -0.2332 -0.5756  0.7132
11251SOL     OW34946   8.551   2.621   1.367 -0.0301  0.1968  0.5573
11251SOL    HW134947   8.576   2.555   1.302 -1.4457 -0.1955  0.3680
11251SOL    HW234948   8.521   2.570   1.442 -2.3569  0.5219 -0.0603
11252SOL     OW34949   1.742   6.503   2.321 -0.4308 -0.2755 -0.3882
11252SOL    HW134950   1.708   6.557   2.250 -1.0529  0.1008  0.1807
11252SOL    HW234951   1.719   6.413   2.297  0.2713 -0.2725 -1.1509
11253SOL     OW34952   0.079   6.847   3.193 -0.0133  0.7113 -0.4640
11253SOL    HW134953   0.060   6.854   3.287 -1.9344 -0.5009 -0.7174
11253SOL    HW234954   0.175   6.848   3.189  0.1028  2.2267  1.3603
11254SOL     OW34955   5.625   0.328   1.699  0.2860  0.4236 -0.2246
11254SOL    HW134956   5.530   0.331   1.711  0.0782 -0.5691 -1.3861
11254SOL    HW234957   5.658   0.296   1.783 -0.5374 -0.4722 -0.2115
11255SOL     OW34958   5.808   4.799   6.635 -0.0048  0.2899 -0.0518
11255SOL    HW134959   5.799   4.771   6.726 -1.7492 -0.5009 -0.4267
11255SOL    HW234960   5.746   4.872   6.625  1.8519  1.9626 -0.0486
11256SOL     OW34961   0.652   5.913   3.410  0.2669  0.0090  0.1487
11256SOL    HW134962   0.639   5.936   3.502 -2.2749 -1.6599  0.2921
11256SOL    HW234963   0.580   5.853   3.390  0.4622  0.7172 -3.0942
11257SOL     OW34964   0.397   0.111   0.692 -0.7407  0.4437  0.0878
11257SOL    HW134965   0.379   0.022   0.661  1.0807 -0.8146  2.3161
11257SOL    HW234966   0.315   0.158   0.680 -1.6527 -1.3999 -1.4973
11258SOL     OW34967   0.575   6.634   1.022 -0.2343  0.1194  0.4741
11258SOL    HW134968   0.582   6.553   1.072 -0.4921 -0.7842 -0.8697
11258SOL    HW234969   0.636   6.694   1.064  1.4473 -1.4106  0.3720
11259SOL     OW34970   1.931   3.457   2.586 -0.2347  1.0465 -0.5504
11259SOL    HW134971   1.837   3.459   2.567 -0.6187 -1.6709  0.6190
11259SOL    HW234972   1.941   3.513   2.663 -1.1257  0.5253 -0.0271
11260SOL     OW34973   2.949   5.515   1.340 -0.0348 -0.1320 -0.0397
11260SOL    HW134974   2.942   5.430   1.295  0.4221 -0.1763 -0.0255
11260SOL    HW234975   2.858   5.536   1.363 -0.3223  0.0524 -1.2709
11261SOL     OW34976   6.409   7.598   3.370  0.1210  0.2443 -0.1530
11261SOL    HW134977   6.472   7.543   3.417  1.4709  0.8905 -1.1687
11261SOL    HW234978   6.382   7.545   3.295  0.6859  0.5741 -0.5969
11262SOL     OW34979   1.245   2.381   6.060 -0.1817  0.3659  0.1030
11262SOL    HW134980   1.304   2.390   6.135 -0.2169  0.6303  0.0994
11262SOL    HW234981   1.213   2.291   6.066  1.8888 -0.5285 -1.1151
11263SOL     OW34982   7.259   6.572   1.056  0.0614 -0.1748  0.6343
11263SOL    HW134983   7.309   6.650   1.082 -2.5228  2.6295 -1.8812
11263SOL    HW234984   7.175   6.581   1.102 -0.0051 -2.0219  0.9465
11264SOL     OW34985   2.426   2.724   3.215 -0.1360 -0.2324 -0.6427
11264SOL    HW134986   2.437   2.791   3.147 -0.6055 -0.6905 -1.1756
11264SOL    HW234987   2.514   2.715   3.253  0.0138  0.4168 -0.8128
11265SOL     OW34988   0.255   4.349   6.651 -0.3019  0.4176 -0.6941
11265SOL    HW134989   0.271   4.357   6.745  0.6631 -0.6032 -0.7496
11265SOL    HW234990   0.162   4.368   6.640 -0.6650 -0.5080  0.6096
11266SOL     OW34991   2.682   3.056   5.397 -0.5477  0.5038  0.0345
11266SOL    HW134992   2.687   3.074   5.303  1.1405 -2.9241 -0.6979
11266SOL    HW234993   2.588   3.043   5.413 -0.7913  0.1718 -1.4491
11267SOL     OW34994   1.459   7.954   8.577  0.0102  0.5530 -0.1458
11267SOL    HW134995   1.394   8.007   8.531 -1.8945 -1.2738  0.3208
11267SOL    HW234996   1.458   7.869   8.531  2.4034  0.5761 -0.3879
11268SOL     OW34997   5.320   1.727   5.970 -0.1787 -0.1990  0.2245
11268SOL    HW134998   5.267   1.711   6.048 -0.8999 -1.3829 -0.4813
11268SOL    HW234999   5.329   1.641   5.929 -0.0785  0.4483 -1.1523
11269SOL     OW35000   7.113   6.730   5.127  0.4489  0.2522 -0.1022
11269SOL    HW135001   7.133   6.719   5.034 -0.2086  1.2431 -0.3840
11269SOL    HW235002   7.025   6.693   5.138  0.5383  0.1057  0.1332
11270SOL     OW35003   0.320   8.106   1.398 -0.2886  0.6786 -0.2284
11270SOL    HW135004   0.411   8.133   1.385  0.1496 -1.2726 -1.6808
11270SOL    HW235005   0.325   8.012   1.414 -2.0298  0.6169  0.1236
11271SOL     OW35006   3.966   6.635   7.553  0.2675 -0.0678 -0.3719
11271SOL    HW135007   3.884   6.589   7.569  0.7576 -1.2514 -1.0926
11271SOL    HW235008   3.941   6.713   7.503 -0.6463  0.8081  1.3715
11272SOL     OW35009   5.968   6.177   1.153  0.5669  0.3476  0.0390
11272SOL    HW135010   5.922   6.261   1.151 -1.7204 -0.7990  0.6955
11272SOL    HW235011   6.038   6.186   1.088  0.8168  2.9541  0.5791
11273SOL     OW35012   1.380   3.835   0.798  0.0745  0.4866 -0.1180
11273SOL    HW135013   1.318   3.894   0.755 -1.2818 -1.1144 -0.4546
11273SOL    HW235014   1.326   3.780   0.854  1.1196 -1.2552 -0.7500
11274SOL     OW35015   6.209   1.034   2.658  0.4525  0.3748 -0.3048
11274SOL    HW135016   6.193   0.940   2.664  0.2548  0.1747 -2.7412
11274SOL    HW235017   6.297   1.046   2.694 -0.1909 -0.4308  1.6418
11275SOL     OW35018   0.829   5.999   7.413  0.4393  0.6815 -0.2364
11275SOL    HW135019   0.785   5.918   7.437  0.0145  0.5435 -1.3923
11275SOL    HW235020   0.762   6.067   7.424 -0.5464  0.3260 -3.1199
11276SOL     OW35021   1.107   3.281   6.111  0.0307 -0.8874  0.7033
11276SOL    HW135022   1.084   3.193   6.141 -0.1779 -1.8064 -1.8846
11276SOL    HW235023   1.134   3.269   6.020  1.3683  1.5558  0.6829
11277SOL     OW35024   0.509   0.171   0.943 -0.1119  0.3203 -0.1151
11277SOL    HW135025   0.475   0.134   0.862 -2.6944  2.3320 -0.0880
11277SOL    HW235026   0.469   0.119   1.012  0.8774 -0.4353 -0.0987
11278SOL     OW35027   5.676   3.452   2.528 -0.4937 -0.2545 -0.1337
11278SOL    HW135028   5.597   3.499   2.556  0.1379  0.2637  0.8630
11278SOL    HW235029   5.657   3.360   2.545 -1.4269 -0.2964 -1.2910
11279SOL     OW35030   7.805   7.050   4.737  0.0592 -0.4661  0.9371
11279SOL    HW135031   7.733   6.991   4.714  1.0885 -1.5922  0.4338
11279SOL    HW235032   7.780   7.134   4.700  0.2565 -1.4924 -1.7677
11280SOL     OW35033   2.127   1.835   0.276 -0.1376 -0.4913 -0.4674
11280SOL    HW135034   2.140   1.789   0.194  1.0013  0.4118 -0.8292
11280SOL    HW235035   2.066   1.905   0.255  0.8010  0.2594 -0.7805
11281SOL     OW35036   5.021   0.726   8.418  0.2132  0.3572 -0.2197
11281SOL    HW135037   4.960   0.669   8.466 -0.3451  0.2575 -1.0195
11281SOL    HW235038   5.061   0.668   8.353  1.6567  0.2733  0.7008
11282SOL     OW35039   7.060   4.302   6.974  0.8462  0.0230 -0.3178
11282SOL    HW135040   7.029   4.273   6.888 -0.0876  1.4303 -0.4806
11282SOL    HW235041   7.083   4.394   6.962  2.6452 -0.2853  0.4622
11283SOL     OW35042   6.775   4.238   1.166 -0.3615 -0.0068 -0.0850
11283SOL    HW135043   6.856   4.188   1.178  0.2115  0.7948 -0.4714
11283SOL    HW235044   6.773   4.299   1.240 -0.5522  0.0501 -0.1359
11284SOL     OW35045   0.666   6.572   3.915  0.0745  0.1098  0.3198
11284SOL    HW135046   0.622   6.545   3.834  0.6766 -0.7574  0.2573
11284SOL    HW235047   0.694   6.490   3.955  0.2872  0.5628  1.1239
11285SOL     OW35048   0.456   8.027   6.476  0.4247  0.4367 -0.4762
11285SOL    HW135049   0.418   8.028   6.388  2.8991 -0.2067 -1.6289
11285SOL    HW235050   0.504   8.109   6.483 -1.7294  1.6621  1.3143
11286SOL     OW35051   1.035   3.826   5.753 -0.1583  0.4049 -0.6625
11286SOL    HW135052   1.071   3.807   5.840 -0.8092 -0.9486 -0.6627
11286SOL    HW235053   1.102   3.878   5.710  0.1568  1.1412  0.6628
11287SOL     OW35054   5.963   4.690   6.258  0.0948 -0.4957  0.2027
11287SOL    HW135055   6.007   4.610   6.226 -0.6757 -0.3698 -1.2813
11287SOL    HW235056   6.035   4.747   6.286  0.7238 -1.2567  0.1884
11288SOL     OW35057   6.548   5.947   2.748 -0.1572  0.0579 -0.3012
11288SOL    HW135058   6.518   6.001   2.822 -0.4390  0.0262 -0.3912
11288SOL    HW235059   6.509   5.861   2.764  0.6933 -0.2688  0.1048
11289SOL     OW35060   2.758   1.697   3.083 -0.5264  0.4715 -0.2357
11289SOL    HW135061   2.803   1.650   3.013  0.8519  0.9555  0.2892
11289SOL    HW235062   2.689   1.637   3.112  0.3371 -0.6685 -0.4679
11290SOL     OW35063   0.925   4.287   6.975  0.2063  0.8169  0.0785
11290SOL    HW135064   0.970   4.267   7.057  0.4792  2.3971  0.3480
11290SOL    HW235065   0.832   4.285   6.997  0.2473  0.5232  0.2396
11291SOL     OW35066   2.726   6.696   7.508  0.2700 -0.3950 -0.4030
11291SOL    HW135067   2.722   6.791   7.520  1.4972 -0.4801  1.0923
11291SOL    HW235068   2.675   6.660   7.581  0.2410 -0.8782 -0.6579
11292SOL     OW35069   8.575   3.382   4.910 -0.4622  0.1192 -0.1379
11292SOL    HW135070   8.568   3.462   4.858 -1.8331  1.9615  2.6004
11292SOL    HW235071   8.486   3.346   4.910 -0.2375 -0.4372  0.0574
11293SOL     OW35072   2.102   6.260   0.108  0.2922 -0.1674 -0.0788
11293SOL    HW135073   2.042   6.189   0.086 -0.1676 -1.0739  3.4183
11293SOL    HW235074   2.182   6.241   0.059 -1.0986 -0.8365 -2.2190
11294SOL     OW35075   1.745   5.196   5.851 -0.4170 -0.0663 -0.1696
11294SOL    HW135076   1.700   5.115   5.826 -0.4301 -0.2724  0.5180
11294SOL    HW235077   1.802   5.171   5.923  1.5763 -0.0211 -1.6655
11295SOL     OW35078   5.224   8.305   2.163  0.1109 -0.0210  0.5793
11295SOL    HW135079   5.164   8.231   2.175 -1.7671  1.5743  1.4934
11295SOL    HW235080   5.254   8.326   2.251 -0.4696  1.1632  0.5120
11296SOL     OW35081   1.023   3.828   8.285  0.3712 -0.4660  0.0569
11296SOL    HW135082   0.995   3.851   8.374 -1.1693  0.1455 -0.5537
11296SOL    HW235083   0.946   3.842   8.231  0.5361 -3.1954 -1.0352
11297SOL     OW35084   7.302   7.900   7.217 -0.1016 -0.3295  0.1023
11297SOL    HW135085   7.311   7.883   7.310  2.3811 -0.3755 -0.0783
11297SOL    HW235086   7.259   7.986   7.212 -0.1236 -0.2662  1.2762
11298SOL     OW35087   8.410   4.396   0.350 -0.3272 -0.0603 -0.1559
11298SOL    HW135088   8.503   4.379   0.335 -0.1136  1.6690 -1.1395
11298SOL    HW235089   8.373   4.401   0.262 -1.3085 -0.4797  0.2266
11299SOL     OW35090   2.435   6.407   3.594 -0.1602  0.0549 -0.3298
11299SOL    HW135091   2.474   6.396   3.681  1.6239  1.6486 -0.8537
11299SOL    HW235092   2.345   6.436   3.612  0.8439  2.6227  1.0974
11300SOL     OW35093   5.671   0.388   6.416 -0.0972 -0.4713 -0.9174
11300SOL    HW135094   5.687   0.376   6.323  0.7525  0.6891 -0.9475
11300SOL    HW235095   5.617   0.467   6.421  1.1036  0.3484 -0.3749
11301SOL     OW35096   7.865   2.122   2.120  0.0644 -0.1388 -0.1396
11301SOL    HW135097   7.832   2.153   2.035  1.1763 -1.0161 -0.9283
11301SOL    HW235098   7.878   2.028   2.107 -0.6376 -0.4602  1.3223
11302SOL     OW35099   5.344   1.310   2.614  0.5679  0.4344  0.0935
11302SOL    HW135100   5.274   1.324   2.551 -0.0872 -0.1591  0.6804
11302SOL    HW235101   5.338   1.385   2.674 -1.6928 -1.1919  2.0779
11303SOL     OW35102   3.716   2.645   2.251 -0.1585 -0.0459  0.3024
11303SOL    HW135103   3.674   2.687   2.326  0.3905  0.3754  0.3859
11303SOL    HW235104   3.648   2.642   2.184  0.1227  2.3139 -0.2047
11304SOL     OW35105   7.679   1.828   2.692 -0.2373 -0.4016  0.2681
11304SOL    HW135106   7.597   1.794   2.726 -0.6245 -0.8112 -0.9938
11304SOL    HW235107   7.738   1.752   2.693  0.2578 -0.0223  1.5104
11305SOL     OW35108   3.494   8.353   0.166 -0.4612 -1.1407 -0.3762
11305SOL    HW135109   3.522   8.442   0.145 -2.4757 -1.0534 -3.2684
11305SOL    HW235110   3.422   8.364   0.228  1.0496 -1.0098  1.4628
11306SOL     OW35111   1.770   0.011   7.601 -1.0478  0.2466  0.4375
11306SOL    HW135112   1.801   0.011   7.510  1.6844 -0.0108  1.2994
11306SOL    HW235113   1.738   0.100   7.615  1.8600  1.4070  0.2185
11307SOL     OW35114   4.586   3.720   2.539 -0.8918 -0.3744  0.7352
11307SOL    HW135115   4.664   3.767   2.564 -0.5565 -1.2222  1.3313
11307SOL    HW235116   4.558   3.674   2.618 -2.1628  0.1381  0.6121
11308SOL     OW35117   7.476   2.645   6.498 -0.1567  0.1433  0.2122
11308SOL    HW135118   7.519   2.728   6.480 -0.9574  0.5858  0.3127
11308SOL    HW235119   7.383   2.662   6.483 -0.2866 -0.8505 -0.1864
11309SOL     OW35120   2.018   4.449   5.631 -0.0654  0.0379  0.2878
11309SOL    HW135121   2.064   4.534   5.629  1.2368 -0.6306  0.4507
11309SOL    HW235122   1.968   4.450   5.712  2.8086 -0.7372  2.2359
11310SOL     OW35123   7.169   6.295   2.862  0.5206 -0.5787 -0.5873
11310SOL    HW135124   7.199   6.233   2.929 -0.7652 -0.5604  0.0260
11310SOL    HW235125   7.088   6.256   2.828 -0.7894  1.1399  0.4135
11311SOL     OW35126   6.268   6.265   4.083 -0.0387 -0.2666 -0.4440
11311SOL    HW135127   6.230   6.337   4.133 -0.4226 -1.0135  0.3498
11311SOL    HW235128   6.278   6.300   3.994 -0.7892  0.5604 -0.2080
11312SOL     OW35129   3.192   2.878   0.198 -0.1131 -0.1978 -0.0911
11312SOL    HW135130   3.120   2.857   0.139  0.3295 -0.8979 -0.4034
11312SOL    HW235131   3.246   2.799   0.199  0.7352  0.3590 -0.0010
11313SOL     OW35132   1.498   2.689   0.178 -0.3101  0.0429  0.2610
11313SOL    HW135133   1.590   2.664   0.188 -0.0357  1.4637  1.6968
11313SOL    HW235134   1.496   2.740   0.096  0.0804 -0.4032 -0.0300
11314SOL     OW35135   2.435   5.812   2.477  0.0596 -0.4537 -0.2482
11314SOL    HW135136   2.454   5.736   2.422 -0.1834 -1.7107  1.3218
11314SOL    HW235137   2.358   5.786   2.527  1.0516  0.0856  1.6482
11315SOL     OW35138   2.673   4.283   7.889 -0.1887  0.4294  0.0870
11315SOL    HW135139   2.605   4.229   7.848 -0.7039  1.4362 -0.4279
11315SOL    HW235140   2.708   4.335   7.816  1.5480 -0.4661  0.2254
11316SOL     OW35141   5.408   6.753   5.587  0.2764  0.0989 -0.4157
11316SOL    HW135142   5.442   6.824   5.532  0.5505 -0.7023 -1.3084
11316SOL    HW235143   5.360   6.696   5.526  1.6893 -1.5231 -0.0842
11317SOL     OW35144   0.917   6.855   3.428 -0.1846  0.0099  0.0422
11317SOL    HW135145   0.825   6.854   3.455 -0.5700  0.3814 -1.1803
11317SOL    HW235146   0.952   6.771   3.457 -0.1164  0.9266  3.0179
11318SOL     OW35147   7.059   5.632   8.363 -0.4364 -0.2134  0.4797
11318SOL    HW135148   7.097   5.711   8.324  0.2219 -1.1518 -0.8457
11318SOL    HW235149   7.021   5.662   8.446 -0.6766  1.5899 -0.2390
11319SOL     OW35150   2.967   6.198   3.847  0.0416 -0.0025 -0.2921
11319SOL    HW135151   2.892   6.235   3.801 -0.3225 -0.3492  0.0142
11319SOL    HW235152   3.043   6.235   3.802 -0.2844 -0.8564 -1.6328
11320SOL     OW35153   3.644   0.703   3.036 -0.1790 -0.5533 -0.1171
11320SOL    HW135154   3.682   0.782   3.074  0.9213 -0.1661 -1.9109
11320SOL    HW235155   3.652   0.637   3.106  2.0778  0.0194  0.2578
11321SOL     OW35156   1.862   2.116   6.123 -0.2917  0.4910 -0.2042
11321SOL    HW135157   1.908   2.122   6.040  0.5928  1.4821  0.3412
11321SOL    HW235158   1.891   2.192   6.173 -0.8530 -0.0504  0.9961
11322SOL     OW35159   3.290   0.173   4.601 -0.1883 -0.0136  0.1177
11322SOL    HW135160   3.317   0.094   4.649  0.7268  1.7806  2.7645
11322SOL    HW235161   3.296   0.147   4.509 -0.7905 -3.2853  0.8481
11323SOL     OW35162   8.070   5.881   6.634 -0.3161  0.0626 -0.2610
11323SOL    HW135163   8.000   5.816   6.639 -1.3471  1.1824  0.2803
11323SOL    HW235164   8.127   5.850   6.563  0.5471 -2.6963  1.4600
11324SOL     OW35165   5.664   4.051   5.882  0.2152  0.0050  0.3312
11324SOL    HW135166   5.641   3.960   5.861 -0.8487 -0.0224  1.5064
11324SOL    HW235167   5.613   4.071   5.961  0.4066  1.6401  0.0704
11325SOL     OW35168   0.024   4.459   3.905  0.8389  0.3854 -0.9274
11325SOL    HW135169   0.028   4.480   3.811  3.3879  0.3457 -0.8794
11325SOL    HW235170   0.113   4.474   3.937 -0.0454  0.6879  1.5819
11326SOL     OW35171   5.366   8.493   5.545 -0.2614 -0.2872 -0.2842
11326SOL    HW135172   5.320   8.566   5.587 -0.6843 -0.5868 -0.2253
11326SOL    HW235173   5.336   8.416   5.592 -2.5293 -0.9351 -2.5654
11327SOL     OW35174   0.252   5.781   4.819  0.2985 -0.0124 -0.9634
11327SOL    HW135175   0.272   5.755   4.729  2.1707 -1.6947 -0.1239
11327SOL    HW235176   0.323   5.841   4.843 -0.8828  1.4535 -0.9747
11328SOL     OW35177   6.049   7.215   7.511 -0.2944  0.1454 -0.3379
11328SOL    HW135178   5.961   7.240   7.537 -0.3979  1.0188 -1.4619
11328SOL    HW235179   6.047   7.210   7.416  0.4442 -1.5457 -0.3079
11329SOL     OW35180   4.653   6.592   4.644  0.4065  0.3658 -0.0442
11329SOL    HW135181   4.666   6.504   4.681 -0.7709 -0.4200 -1.3827
11329SOL    HW235182   4.695   6.651   4.706  2.4422 -1.2493  0.2184
11330SOL     OW35183   8.237   1.822   5.363  0.0901 -0.0543  0.6621
11330SOL    HW135184   8.198   1.873   5.293 -2.2784 -0.6113  1.4773
11330SOL    HW235185   8.328   1.809   5.336 -0.2961  1.2045 -1.4353
11331SOL     OW35186   0.692   6.083   1.648 -0.3384  0.3871  0.0784
11331SOL    HW135187   0.727   6.103   1.735  0.6035  1.1497 -0.4562
11331SOL    HW235188   0.599   6.070   1.662 -0.0760 -0.3223  1.3325
11332SOL     OW35189   4.430   4.810   6.579  0.0733 -0.6713 -0.2168
11332SOL    HW135190   4.456   4.902   6.577 -0.9683 -0.3433  0.4467
11332SOL    HW235191   4.351   4.806   6.525  0.3739 -1.2769 -0.6306
11333SOL     OW35192   8.133   2.288   6.772  0.4317  0.2642  0.2949
11333SOL    HW135193   8.073   2.342   6.721  0.2054  0.3927  0.6917
11333SOL    HW235194   8.078   2.218   6.808  0.9918 -1.2243 -1.5422
11334SOL     OW35195   5.737   7.182   3.842  0.2827 -0.4016  0.3910
11334SOL    HW135196   5.653   7.212   3.807  0.9374  1.7814  0.5201
11334SOL    HW235197   5.731   7.202   3.936  1.2430  0.6221  0.2562
11335SOL     OW35198   2.335   7.324   6.832 -0.8255 -0.4372 -0.5556
11335SOL    HW135199   2.321   7.404   6.883  2.8944 -0.8113  1.4609
11335SOL    HW235200   2.322   7.253   6.895  1.0120 -1.0640 -0.8278
11336SOL     OW35201   2.048   5.889   6.396 -0.0373  0.5510 -0.2841
11336SOL    HW135202   2.051   5.829   6.321  0.8097  0.7610 -0.4304
11336SOL    HW235203   2.106   5.961   6.371  0.6247  0.3973  0.7559
11337SOL     OW35204   2.911   7.297   4.787 -0.3605  0.0724 -0.5405
11337SOL    HW135205   2.966   7.335   4.856  0.2929  3.1519 -2.5825
11337SOL    HW235206   2.823   7.332   4.804 -0.4891 -0.2333 -0.5584
11338SOL     OW35207   4.154   5.949   6.765  0.1845  0.3382  0.2213
11338SOL    HW135208   4.096   5.948   6.841 -1.6769  0.2081 -1.1292
11338SOL    HW235209   4.130   5.871   6.715  2.3604 -0.3573  0.1612
11339SOL     OW35210   4.883   1.605   3.344 -0.7507  0.0871 -0.6864
11339SOL    HW135211   4.882   1.650   3.259 -1.2198 -1.9181 -1.8130
11339SOL    HW235212   4.791   1.587   3.362 -0.6427  0.4434  0.2363
11340SOL     OW35213   1.833   3.011   3.956 -0.1720 -0.4689  0.8603
11340SOL    HW135214   1.918   3.029   3.915 -0.5803 -1.1771 -0.3428
11340SOL    HW235215   1.824   3.079   4.023  1.8323 -1.0197  1.7858
11341SOL     OW35216   1.699   3.993   1.195 -0.2014  0.0220 -0.0028
11341SOL    HW135217   1.649   4.026   1.270  0.0029 -0.5661  0.3968
11341SOL    HW235218   1.648   3.918   1.164 -0.5198  0.5402 -0.7331
11342SOL     OW35219   6.739   3.241   4.281 -0.2881 -0.4612 -0.1563
11342SOL    HW135220   6.716   3.276   4.368 -0.8491  2.4537 -1.3463
11342SOL    HW235221   6.831   3.265   4.270 -0.6001  0.4386 -0.8853
11343SOL     OW35222   0.758   0.419   1.646  0.0024 -0.3052 -0.2862
11343SOL    HW135223   0.705   0.436   1.724 -1.3991 -0.7294 -1.1028
11343SOL    HW235224   0.732   0.331   1.619  2.5594 -1.3489  0.3492
11344SOL     OW35225   2.842   7.756   0.960 -0.1185  0.6933  0.3549
11344SOL    HW135226   2.805   7.707   1.033 -1.3727  1.9543  0.6160
11344SOL    HW235227   2.907   7.814   1.000 -1.3254  1.9181  0.6460
11345SOL     OW35228   3.110   3.916   6.278 -0.1513  0.0752 -0.1643
11345SOL    HW135229   3.032   3.878   6.238 -0.5592  0.1751  0.5259
11345SOL    HW235230   3.142   3.849   6.338  0.1373  0.1393 -0.2449
11346SOL     OW35231   3.656   2.943   2.710 -0.0114  0.2924 -0.1026
11346SOL    HW135232   3.640   2.898   2.793  1.7192  1.7652  1.1352
11346SOL    HW235233   3.596   3.018   2.712 -0.1466  0.1875 -0.2897
11347SOL     OW35234   6.207   5.881   6.493  0.2624 -0.3892 -0.2857
11347SOL    HW135235   6.174   5.803   6.537  0.4854 -0.2402  0.1411
11347SOL    HW235236   6.153   5.953   6.527  0.4737 -0.2656 -0.2088
11348SOL     OW35237   5.331   8.374   6.658 -0.5569 -0.0247  0.1320
11348SOL    HW135238   5.309   8.353   6.567 -0.1402 -0.2889  0.0900
11348SOL    HW235239   5.417   8.415   6.654  0.7919 -2.5525  0.6250
11349SOL     OW35240   1.422   0.010   4.419  0.2300 -0.7315 -0.1693
11349SOL    HW135241   1.408  -0.023   4.507 -3.6341  0.3901 -0.1862
11349SOL    HW235242   1.343   0.060   4.399  1.9864  1.1131 -3.3891
11350SOL     OW35243   4.205   6.450   4.617 -0.8476 -0.3569 -0.1773
11350SOL    HW135244   4.282   6.418   4.663 -0.1768  0.1692 -0.9077
11350SOL    HW235245   4.239   6.485   4.534 -1.6534  1.3407  0.1549
11351SOL     OW35246   3.663   4.695   0.846 -0.3354 -0.7275 -0.3867
11351SOL    HW135247   3.596   4.647   0.894 -0.3345  1.7974  2.4144
11351SOL    HW235248   3.695   4.760   0.908  2.5641  0.1847 -2.6209
11352SOL     OW35249   6.773   2.865   5.359 -0.0665 -0.4256 -0.4005
11352SOL    HW135250   6.807   2.910   5.437 -1.3682  0.4832 -0.3110
11352SOL    HW235251   6.719   2.931   5.315  0.1695 -1.1061 -1.7693
11353SOL     OW35252   5.754   1.678   1.131  0.1195 -0.0516 -0.0875
11353SOL    HW135253   5.764   1.639   1.044  2.2463 -0.4771  0.2878
11353SOL    HW235254   5.663   1.661   1.155 -0.8001  0.9090 -2.6021
11354SOL     OW35255   6.194   2.292   4.966  0.5224 -0.2330 -0.1079
11354SOL    HW135256   6.277   2.289   5.012  0.3191 -0.0842  0.2652
11354SOL    HW235257   6.150   2.210   4.990  0.8319 -0.6218 -0.8181
11355SOL     OW35258   2.344   7.763   3.847 -0.2573  0.4440 -0.7210
11355SOL    HW135259   2.352   7.852   3.881  0.9145  0.3520 -0.7027
11355SOL    HW235260   2.344   7.707   3.925  2.2530  0.2441 -0.7941
11356SOL     OW35261   4.631   5.587   6.526  0.0420 -0.3901  0.0233
11356SOL    HW135262   4.625   5.553   6.615  3.8594  1.0930  1.0429
11356SOL    HW235263   4.582   5.670   6.528  2.4459  1.1079  1.7282
11357SOL     OW35264   6.526   4.823   4.945 -0.1488 -0.1584  0.4502
11357SOL    HW135265   6.498   4.808   4.855 -1.1013 -0.5720  0.7961
11357SOL    HW235266   6.620   4.841   4.939 -0.0497 -0.9395 -0.5437
11358SOL     OW35267   5.831   4.818   7.944 -0.2420 -0.1919  0.2215
11358SOL    HW135268   5.826   4.855   7.856  2.3058 -1.0516 -0.3837
11358SOL    HW235269   5.760   4.754   7.949 -0.1817 -0.4033 -1.3755
11359SOL     OW35270   8.160   4.049   0.023  0.1758 -0.3925  0.4894
11359SOL    HW135271   8.106   3.996   0.082  0.8456 -0.2559  1.2325
11359SOL    HW235272   8.191   3.987  -0.043 -2.5245 -0.1238 -1.1897
11360SOL     OW35273   5.673   3.746   4.993  0.0253  0.0451  0.1411
11360SOL    HW135274   5.606   3.729   4.927 -0.8143  0.9127  0.7446
11360SOL    HW235275   5.642   3.824   5.039  1.8797  1.0114 -0.1294
11361SOL     OW35276   1.497   6.865   0.242  0.3499 -0.3664 -0.1742
11361SOL    HW135277   1.451   6.813   0.176 -0.8741  1.9823 -1.3370
11361SOL    HW235278   1.569   6.906   0.194  1.0608 -0.6794  0.6109
11362SOL     OW35279   7.151   2.189   2.528  0.0418  0.2431 -0.2067
11362SOL    HW135280   7.188   2.198   2.615  1.1376  1.8663 -0.7814
11362SOL    HW235281   7.125   2.278   2.504 -3.8975 -0.6849 -0.0597
11363SOL     OW35282   1.828   3.960   5.402  0.0208  0.1170 -0.1012
11363SOL    HW135283   1.832   4.046   5.361 -2.3945 -0.2119 -1.1744
11363SOL    HW235284   1.900   3.911   5.361 -0.4226  0.7355 -1.6898
11364SOL     OW35285   4.943   3.311   5.457 -0.0058  0.0374 -0.0609
11364SOL    HW135286   4.892   3.232   5.437 -0.6224  0.2473  0.6402
11364SOL    HW235287   4.940   3.318   5.552  0.1036  0.8683 -0.1129
11365SOL     OW35288   3.205   2.774   7.909  0.7645 -0.4010 -0.5586
11365SOL    HW135289   3.202   2.816   7.823  1.3219 -0.1087 -0.4364
11365SOL    HW235290   3.281   2.813   7.953 -0.4861  0.7390  0.7134
11366SOL     OW35291   4.571   4.997   8.101  0.8722  0.5108  0.1216
11366SOL    HW135292   4.535   4.999   8.190 -1.1774 -0.9624 -0.6000
11366SOL    HW235293   4.660   5.032   8.110  1.0745 -0.4998  2.9108
11367SOL     OW35294   6.966   3.363   8.559  0.3589 -0.0481 -0.3562
11367SOL    HW135295   6.995   3.284   8.606  1.0682  0.9871  1.0043
11367SOL    HW235296   6.990   3.435   8.616  1.3554  1.3027 -2.3557
11368SOL     OW35297   1.141   7.393   2.286  0.3715  0.1659 -0.0915
11368SOL    HW135298   1.181   7.471   2.248  1.5045 -0.3781 -0.0538
11368SOL    HW235299   1.143   7.408   2.380  0.5819  0.0988 -0.0847
11369SOL     OW35300   8.484   0.850   5.707  0.2331 -0.0412 -0.1626
11369SOL    HW135301   8.507   0.880   5.619  0.8688 -4.0300 -1.5985
11369SOL    HW235302   8.396   0.813   5.698 -0.2254  0.6373  1.2503
11370SOL     OW35303   0.828   5.091   8.341  0.6021  0.3442 -0.3656
11370SOL    HW135304   0.832   4.996   8.331  0.3232  0.4083 -1.1385
11370SOL    HW235305   0.801   5.103   8.433 -0.4606 -0.3484 -0.5587
11371SOL     OW35306   2.533   1.899   7.751 -0.0828  0.0725  0.3091
11371SOL    HW135307   2.598   1.867   7.688  0.3672  0.8858  0.3514
11371SOL    HW235308   2.537   1.836   7.823  0.2630 -0.1870  0.0677
11372SOL     OW35309   0.616   6.160   7.340 -0.2984  0.5811 -0.6292
11372SOL    HW135310   0.618   6.189   7.249  1.3171 -0.5905 -1.0196
11372SOL    HW235311   0.540   6.102   7.345 -0.1132  0.2627 -1.3686
11373SOL     OW35312   8.503   3.454   6.740  0.2860  0.3085  0.1733
11373SOL    HW135313   8.495   3.547   6.718  2.9409  0.2627 -1.4180
11373SOL    HW235314   8.558   3.453   6.819  0.9669  0.0739 -0.3012
11374SOL     OW35315   1.608   2.086   2.702 -0.0941  0.1600 -0.1204
11374SOL    HW135316   1.571   2.174   2.695  0.0020  0.4210  2.1620
11374SOL    HW235317   1.574   2.051   2.784  1.7711 -1.0223  0.2211
11375SOL     OW35318   0.665   2.642   1.566 -0.1132 -0.3280  0.0839
11375SOL    HW135319   0.599   2.574   1.567  2.8752 -3.5249  0.3995
11375SOL    HW235320   0.667   2.672   1.475 -0.6338 -1.6333 -0.3771
11376SOL     OW35321   2.034   4.205   6.335 -0.0640 -0.4148  0.1189
11376SOL    HW135322   2.128   4.189   6.347  0.3149 -0.1889 -2.0559
11376SOL    HW235323   2.008   4.253   6.414  1.4488 -1.1975  1.1465
11377SOL     OW35324   0.931   7.324   6.210 -0.8311 -0.4254 -0.1193
11377SOL    HW135325   0.887   7.295   6.130  0.6107  0.2944 -1.2127
11377SOL    HW235326   0.876   7.397   6.241 -1.1340 -0.3798 -0.7355
11378SOL     OW35327   1.496   4.723   3.927 -0.1397  0.5348 -0.1152
11378SOL    HW135328   1.433   4.682   3.986  0.4065  1.7520  1.3628
11378SOL    HW235329   1.447   4.791   3.882  0.3120  2.2914  1.9103
11379SOL     OW35330   6.359   6.665   0.704 -0.0788 -0.3718  0.3093
11379SOL    HW135331   6.350   6.682   0.610 -0.2097 -1.3913  0.1311
11379SOL    HW235332   6.274   6.688   0.741  0.0144  0.1578  0.2073
11380SOL     OW35333   7.052   0.036   1.756  0.1208  0.4913  0.7197
11380SOL    HW135334   7.048  -0.060   1.758 -0.2994  0.4738 -0.3454
11380SOL    HW235335   6.963   0.064   1.777  0.0679  0.6267  0.3254
11381SOL     OW35336   1.030   5.130   1.542  0.1873  0.2142  0.5466
11381SOL    HW135337   1.061   5.204   1.593 -0.6661  0.1430  1.2016
11381SOL    HW235338   1.047   5.054   1.597  4.2024 -0.6168 -1.4442
11382SOL     OW35339   3.915   7.798   7.263  0.1612 -0.1462 -0.0532
11382SOL    HW135340   3.820   7.806   7.266  0.2608  1.1512 -0.0478
11382SOL    HW235341   3.931   7.705   7.278 -1.0447 -0.1924  1.1782
11383SOL     OW35342   4.193   0.102   0.378  0.4078 -0.1467 -0.0874
11383SOL    HW135343   4.180   0.174   0.440  0.4462  0.4115 -0.7133
11383SOL    HW235344   4.281   0.069   0.398 -0.3313 -1.3135  1.4902
11384SOL     OW35345   2.811   8.577   7.192  0.2673 -0.2093  0.0115
11384SOL    HW135346   2.804   8.608   7.282  0.4499  1.5639 -0.5566
11384SOL    HW235347   2.892   8.617   7.159 -0.1553 -0.2679 -1.1500
11385SOL     OW35348   3.170   4.567   6.501 -0.0609 -0.3859 -0.1249
11385SOL    HW135349   3.187   4.645   6.447 -0.2558 -0.1465  0.1515
11385SOL    HW235350   3.075   4.554   6.494  0.0577 -0.9704 -0.6693
11386SOL     OW35351   2.194   2.033   8.355 -0.5622  0.0788 -0.0216
11386SOL    HW135352   2.240   2.042   8.271 -0.4366 -0.5292 -0.0223
11386SOL    HW235353   2.259   1.995   8.414 -0.8544 -0.1351  0.1679
11387SOL     OW35354   5.318   2.085   4.601 -0.3289 -0.2041  0.0833
11387SOL    HW135355   5.407   2.109   4.577 -0.4634 -0.6627 -0.9285
11387SOL    HW235356   5.308   1.995   4.570  0.2179 -1.7894  3.9033
11388SOL     OW35357   0.918   5.022   0.983 -0.2867 -0.1577 -0.3493
11388SOL    HW135358   0.969   5.090   0.939  0.0617  0.3463  0.8096
11388SOL    HW235359   0.926   5.042   1.076  1.3608 -2.8505  0.1852
11389SOL     OW35360   0.841   2.616   2.974  0.0059  0.3022  0.1767
11389SOL    HW135361   0.824   2.677   2.903 -0.7668 -0.9819 -0.7808
11389SOL    HW235362   0.762   2.563   2.980  1.7014 -2.5889 -1.0773
11390SOL     OW35363   5.755   2.583   1.301  0.1036 -0.4575 -0.1761
11390SOL    HW135364   5.746   2.515   1.368 -0.7081  0.9798  1.2412
11390SOL    HW235365   5.792   2.657   1.348 -0.9284  0.7528 -1.2100
11391SOL     OW35366   4.080   6.308   4.381 -0.2700 -0.6662  0.4120
11391SOL    HW135367   4.102   6.401   4.381 -1.8867 -0.2555  0.5769
11391SOL    HW235368   4.113   6.276   4.465  0.1517 -0.2071  0.4239
11392SOL     OW35369   3.826   1.478   4.215  0.4040 -0.5133 -0.1477
11392SOL    HW135370   3.917   1.466   4.186  1.4490 -0.7938  2.8879
11392SOL    HW235371   3.779   1.403   4.179  1.6097 -0.9708 -0.8296
11393SOL     OW35372   0.129   6.898   4.515  0.7489  0.8338  0.1408
11393SOL    HW135373   0.215   6.940   4.511  1.4149 -0.5819 -0.7598
11393SOL    HW235374   0.120   6.872   4.607  0.7723  1.9585  0.4857
11394SOL     OW35375   6.396   5.742   2.928 -0.1642  0.2832 -0.1416
11394SOL    HW135376   6.364   5.691   2.854 -1.2756 -0.6417  0.9293
11394SOL    HW235377   6.354   5.827   2.920  1.5967  1.0632 -1.8711
11395SOL     OW35378   5.094   3.904   6.615  0.8078  0.0805  0.8503
11395SOL    HW135379   5.032   3.953   6.668 -1.0719  0.5440 -1.5541
11395SOL    HW235380   5.098   3.952   6.532  0.4506 -2.6374 -0.8924
11396SOL     OW35381   5.819   2.402   8.010 -0.3134  0.0889 -0.5964
11396SOL    HW135382   5.852   2.469   8.070  0.2179 -0.7322  0.0510
11396SOL    HW235383   5.886   2.395   7.942 -0.0536 -0.2400 -0.3093
11397SOL     OW35384   6.801   2.992   6.144  0.4557  0.0453 -0.1111
11397SOL    HW135385   6.708   3.004   6.126  0.5000  0.7894  0.0945
11397SOL    HW235386   6.812   2.898   6.156 -0.7632  0.1315  2.4225
11398SOL     OW35387   8.550   0.916   3.149 -0.5998 -0.1564 -0.1199
11398SOL    HW135388   8.508   0.831   3.141 -1.6047  0.4885 -3.1807
11398SOL    HW235389   8.540   0.956   3.063  1.2518  2.4317  0.7246
11399SOL     OW35390   7.771   4.140   1.925 -0.9165  0.0142  0.5487
11399SOL    HW135391   7.826   4.149   2.003  1.2814  1.3656 -1.0594
11399SOL    HW235392   7.748   4.230   1.901  0.3794 -0.1765 -1.6276
11400SOL     OW35393   5.434   6.599   7.179 -0.0349 -0.2584  0.2473
11400SOL    HW135394   5.420   6.504   7.168 -1.4977 -0.2425  1.6100
11400SOL    HW235395   5.484   6.607   7.259 -0.6984  0.1483  0.6276
11401SOL     OW35396   2.012   6.054   4.199  0.6323 -0.3486  0.3689
11401SOL    HW135397   1.950   6.010   4.141  0.8252 -0.7065  0.4262
11401SOL    HW235398   2.074   6.097   4.139  0.7695 -0.6293  0.3056
11402SOL     OW35399   6.641   7.913   2.441 -0.1349  0.5501 -0.4534
11402SOL    HW135400   6.611   7.824   2.460  2.6187 -0.5654 -0.7603
11402SOL    HW235401   6.665   7.948   2.527  2.6149 -0.6371 -0.6232
11403SOL     OW35402   1.520   7.473   5.093 -0.8736  0.5100 -0.4820
11403SOL    HW135403   1.557   7.485   5.180  1.7273 -0.1418 -1.4021
11403SOL    HW235404   1.427   7.458   5.108 -0.6756  1.4118  2.0830
11404SOL     OW35405   1.213   8.232   5.523  0.1752  0.4164 -0.0520
11404SOL    HW135406   1.276   8.304   5.530  1.3870 -0.6174  0.0179
11404SOL    HW235407   1.251   8.173   5.458  0.3983 -1.2960  1.5431
11405SOL     OW35408   1.577   4.616   7.393  0.2759  0.3388  0.2179
11405SOL    HW135409   1.520   4.613   7.470 -1.0992  2.4821 -0.6077
11405SOL    HW235410   1.561   4.533   7.348 -1.8410  0.6380  0.3098
11406SOL     OW35411   5.345   2.235   2.867 -0.2506  0.0056 -0.8725
11406SOL    HW135412   5.264   2.185   2.858 -0.5946  0.2637  0.5373
11406SOL    HW235413   5.323   2.323   2.838  0.0740 -0.3698 -2.3493
11407SOL     OW35414   1.035   8.027   2.742 -0.4201 -0.2015  0.0837
11407SOL    HW135415   0.997   8.058   2.660 -2.2488  0.1772  1.0124
11407SOL    HW235416   0.975   7.958   2.771  0.9053 -1.2271  0.4913
11408SOL     OW35417   7.971   4.445   3.565  0.3380 -0.2340  0.8069
11408SOL    HW135418   7.974   4.471   3.657 -0.2214 -1.3536  1.1705
11408SOL    HW235419   7.927   4.360   3.566 -1.1523  0.4627 -0.6574
11409SOL     OW35420   4.980   0.187   2.762 -0.1383 -0.1694  0.0891
11409SOL    HW135421   4.974   0.251   2.691 -1.3708 -1.3671 -0.9475
11409SOL    HW235422   4.972   0.238   2.842 -3.1967  0.8237 -0.7247
11410SOL     OW35423   1.844   4.793   4.144  0.0301 -0.2931  0.0563
11410SOL    HW135424   1.916   4.815   4.084 -0.1175 -0.8275 -0.3314
11410SOL    HW235425   1.772   4.851   4.118  0.2014 -0.0176  0.1966
11411SOL     OW35426   1.642   8.012   6.689 -0.0648  0.0324  0.0662
11411SOL    HW135427   1.573   7.959   6.649  1.2817 -0.8698 -1.1577
11411SOL    HW235428   1.610   8.102   6.683 -0.0470 -0.0599 -2.9554
11412SOL     OW35429   2.788   1.020   6.510 -0.1414 -0.0346  0.2363
11412SOL    HW135430   2.753   0.958   6.447 -0.1515 -0.2207  0.4247
11412SOL    HW235431   2.820   0.966   6.582  0.6652  0.1321  0.0045
11413SOL     OW35432   0.730   7.900   3.059  0.4864 -0.7290  0.4631
11413SOL    HW135433   0.756   7.847   3.135  1.2449  0.4275  1.0380
11413SOL    HW235434   0.646   7.938   3.085  1.2126  0.4660  1.1787
11414SOL     OW35435   7.538   3.854   2.172 -0.2034  0.1527 -0.3342
11414SOL    HW135436   7.530   3.948   2.188  1.4589  0.5665 -1.6765
11414SOL    HW235437   7.491   3.840   2.090  0.6508  0.0553 -0.8096
11415SOL     OW35438   5.805   0.445   4.846 -0.3191 -0.0421 -0.2591
11415SOL    HW135439   5.763   0.517   4.892  2.2612  0.6236  1.2973
11415SOL    HW235440   5.807   0.472   4.754 -0.3914  1.3586  0.1268
11416SOL     OW35441   0.288   0.342   4.879  0.6218 -0.4306  0.3868
11416SOL    HW135442   0.209   0.309   4.834  0.2619  0.8693  0.0357
11416SOL    HW235443   0.279   0.310   4.969 -0.5338  0.0566  0.4614
11417SOL     OW35444   1.729   3.011   8.547 -0.1543  0.6190  0.1918
11417SOL    HW135445   1.807   2.958   8.560  0.6444  1.4025 -1.1376
11417SOL    HW235446   1.657   2.948   8.540  0.6119 -0.2133 -0.2488
11418SOL     OW35447   5.614   7.284   8.197  0.2841 -0.2619 -0.0978
11418SOL    HW135448   5.709   7.291   8.200  0.1959  1.5117 -0.4099
11418SOL    HW235449   5.587   7.281   8.289  0.6315 -0.7731 -0.0090
11419SOL     OW35450   4.776   7.256   0.144 -0.1758  0.2566  0.8593
11419SOL    HW135451   4.701   7.197   0.141  0.8174 -1.0069  0.4836
11419SOL    HW235452   4.741   7.336   0.184 -1.6950 -0.3376  0.7798
11420SOL     OW35453   3.489   5.047   0.257  0.4111 -0.0694 -0.1004
11420SOL    HW135454   3.454   4.974   0.309 -1.7465  1.6539  1.0117
11420SOL    HW235455   3.537   5.100   0.320 -2.0130  1.9095  0.1998
11421SOL     OW35456   4.390   5.201   8.259 -0.1915  0.1131 -0.2103
11421SOL    HW135457   4.372   5.151   8.338 -0.3791 -0.8975 -0.8725
11421SOL    HW235458   4.307   5.246   8.239 -0.2864 -0.0134 -0.0979
11422SOL     OW35459   6.568   5.344   6.998 -0.2260  0.1298 -0.0820
11422SOL    HW135460   6.607   5.299   6.923  0.9711 -2.2440  1.7913
11422SOL    HW235461   6.492   5.291   7.021 -1.9941  2.1587 -0.9363
11423SOL     OW35462   3.617   0.439   7.281 -0.0835  0.3984  0.4043
11423SOL    HW135463   3.650   0.381   7.349 -0.7397  1.0241  1.2709
11423SOL    HW235464   3.695   0.482   7.246  0.3986 -0.8830 -0.1673
11424SOL     OW35465   7.901   6.604   1.266 -0.3400 -0.5648  0.1176
11424SOL    HW135466   7.966   6.627   1.199 -0.2971 -1.5414 -0.1901
11424SOL    HW235467   7.953   6.565   1.336 -0.4025  0.3251  0.6777
11425SOL     OW35468   2.475   4.395   4.557 -0.0127 -0.1559  0.0889
11425SOL    HW135469   2.404   4.371   4.498  1.1732 -0.4715 -1.2469
11425SOL    HW235470   2.494   4.486   4.536 -0.7406  0.2986  1.2472
11426SOL     OW35471   1.881   2.706   7.380 -0.5432  0.0992  0.0780
11426SOL    HW135472   1.832   2.624   7.368  0.1440 -0.0247 -2.8745
11426SOL    HW235473   1.967   2.678   7.412 -0.8970 -0.1575  0.8016
11427SOL     OW35474   8.531   4.648   6.076 -0.4401  0.0705 -0.1107
11427SOL    HW135475   8.606   4.641   6.134 -0.2766 -0.7031 -0.4098
11427SOL    HW235476   8.559   4.607   5.994 -1.3860 -0.8198 -0.0190
11428SOL     OW35477   8.578   1.625   2.943 -0.9439 -0.0406  0.0240
11428SOL    HW135478   8.633   1.574   2.883 -1.6767  1.4569 -2.0218
11428SOL    HW235479   8.639   1.671   3.000 -0.1872 -0.5598 -0.3624
11429SOL     OW35480   7.657   4.164   0.952 -0.5390 -0.6171 -0.1382
11429SOL    HW135481   7.581   4.208   0.991  0.0131  0.6020 -0.3957
11429SOL    HW235482   7.710   4.138   1.027  0.2995  1.3249  0.0001
11430SOL     OW35483   1.911   5.330   4.401 -0.2149 -0.0544  0.0598
11430SOL    HW135484   1.882   5.388   4.331 -0.5360 -1.0132 -0.6120
11430SOL    HW235485   1.832   5.283   4.427  0.1307 -0.5061  0.3006
11431SOL     OW35486   6.263   2.717   1.417 -1.1334  0.0162  0.6521
11431SOL    HW135487   6.301   2.630   1.426 -1.4418 -0.0504  1.3216
11431SOL    HW235488   6.249   2.748   1.506 -2.5894  0.0625  0.4378
11432SOL     OW35489   7.507   8.415   1.742 -0.0731  0.6733 -0.2958
11432SOL    HW135490   7.437   8.480   1.755 -0.0460  0.7401 -0.4776
11432SOL    HW235491   7.560   8.421   1.821 -0.3700  0.5012 -0.0810
11433SOL     OW35492   4.993   1.349   2.798 -0.1636 -0.3976 -0.2884
11433SOL    HW135493   4.959   1.325   2.884 -0.1658 -0.2715 -0.2538
11433SOL    HW235494   5.080   1.383   2.816 -0.8207  1.2622 -0.1372
11434SOL     OW35495   6.361   0.744   1.790  0.1861  0.5372  0.3960
11434SOL    HW135496   6.412   0.718   1.713  0.2792 -0.3435  0.7415
11434SOL    HW235497   6.278   0.776   1.755  0.1282 -0.0992 -0.0595
11435SOL     OW35498   4.887   3.806   5.499  0.1017 -0.0514  0.4479
11435SOL    HW135499   4.936   3.726   5.482  0.1602  0.0400  0.1822
11435SOL    HW235500   4.820   3.780   5.562 -0.2706 -0.4475 -0.1084
11436SOL     OW35501   6.822   7.293   0.649 -0.0797  0.2100  0.1002
11436SOL    HW135502   6.791   7.223   0.706 -2.1246 -0.2870 -1.5033
11436SOL    HW235503   6.780   7.372   0.683  0.9669  0.4432  0.9353
11437SOL     OW35504   1.634   1.573   3.422  0.5508 -1.3150 -0.9715
11437SOL    HW135505   1.578   1.592   3.498 -1.0278  0.0590 -2.3776
11437SOL    HW235506   1.646   1.478   3.423 -2.2732 -1.7507 -0.8480
11438SOL     OW35507   2.777   2.030   1.384  0.1700 -0.2036 -0.1219
11438SOL    HW135508   2.698   2.072   1.350  1.2577  2.2457  0.1922
11438SOL    HW235509   2.843   2.047   1.317  0.6351 -1.5766 -0.0273
11439SOL     OW35510   6.742   1.889   2.493 -0.1759  0.2608 -0.2465
11439SOL    HW135511   6.745   1.936   2.576  1.5278 -0.3889  0.0836
11439SOL    HW235512   6.669   1.930   2.446 -2.5307 -0.6940  2.3098
11440SOL     OW35513   6.959   0.835   2.585  0.0522 -0.0949  0.0768
11440SOL    HW135514   6.905   0.896   2.535  1.4299  1.1171 -0.0001
11440SOL    HW235515   6.993   0.887   2.658 -0.3509 -1.3261  1.1766
11441SOL     OW35516   3.960   3.067   7.768  0.3891  0.1463 -0.3372
11441SOL    HW135517   3.922   3.008   7.703 -0.9406  1.4281 -0.7601
11441SOL    HW235518   4.010   3.130   7.716 -0.5025  1.0470 -0.1254
11442SOL     OW35519   2.225   6.135   5.773 -0.0625  0.2305 -0.1859
11442SOL    HW135520   2.171   6.113   5.697 -0.5173  0.3877  0.0939
11442SOL    HW235521   2.167   6.184   5.831  0.5001  0.8001 -0.0861
11443SOL     OW35522   2.513   1.449   3.163 -0.2165 -0.4254  0.7529
11443SOL    HW135523   2.436   1.499   3.189 -0.2433  0.2094 -0.5015
11443SOL    HW235524   2.550   1.418   3.246 -1.4748 -0.2363  1.4031
11444SOL     OW35525   7.185   1.099   5.439 -0.1769  0.7211  0.0313
11444SOL    HW135526   7.197   1.189   5.407  3.7122  0.0191 -1.0271
11444SOL    HW235527   7.142   1.054   5.367 -0.6150  1.3428 -0.1104
11445SOL     OW35528   2.467   4.706   6.279  0.0529 -0.1044  0.4134
11445SOL    HW135529   2.414   4.626   6.283 -0.5885  0.2692 -0.1888
11445SOL    HW235530   2.402   4.777   6.279  0.5354  0.3557 -0.5217
11446SOL     OW35531   6.857   7.942   6.133 -0.5227  0.4329 -0.8655
11446SOL    HW135532   6.932   7.999   6.151 -0.0366  0.0840 -1.7529
11446SOL    HW235533   6.842   7.896   6.216  0.3384  0.3991 -0.7173
11447SOL     OW35534   8.293   8.260   5.380  0.3838  0.5234  0.7051
11447SOL    HW135535   8.363   8.238   5.318  0.2961 -0.5544  0.9607
11447SOL    HW235536   8.309   8.202   5.455 -0.5127  0.6031  0.9644
11448SOL     OW35537   3.836   0.908   7.451  0.0938  0.0479 -0.7900
11448SOL    HW135538   3.779   0.856   7.509 -0.4834  0.4204 -1.0131
11448SOL    HW235539   3.826   0.867   7.365 -0.3088  0.4797 -0.9519
11449SOL     OW35540   4.200   4.544   0.044 -0.4254  0.1151 -0.3699
11449SOL    HW135541   4.165   4.456   0.028  0.8344 -0.1809 -1.7195
11449SOL    HW235542   4.278   4.529   0.097 -0.1828  0.4161 -0.6417
11450SOL     OW35543   4.220   2.608   4.148  0.4242 -0.0439  0.0104
11450SOL    HW135544   4.258   2.581   4.231 -0.3300  0.8871  0.6752
11450SOL    HW235545   4.129   2.630   4.169  0.0462 -0.3938 -1.1780
11451SOL     OW35546   2.777   7.032   1.547  0.1774 -0.0249 -0.9165
11451SOL    HW135547   2.797   6.939   1.535  0.9280  0.3098 -2.5259
11451SOL    HW235548   2.694   7.032   1.594  0.9261 -1.4892  0.5217
11452SOL     OW35549   4.750   2.193   7.432  0.6223 -0.3741 -0.8583
11452SOL    HW135550   4.832   2.237   7.453  0.3027  0.8970 -2.0738
11452SOL    HW235551   4.763   2.160   7.343  0.1575 -1.0077 -0.6915
11453SOL     OW35552   0.110   8.165   2.659  0.1991 -0.3411  1.3807
11453SOL    HW135553   0.100   8.248   2.707  0.6467  0.5242  0.0452
11453SOL    HW235554   0.033   8.163   2.601 -0.1389 -1.1857  1.8501
11454SOL     OW35555   8.353   5.253   7.337 -0.5840 -0.4677  0.2240
11454SOL    HW135556   8.316   5.202   7.265  1.4076 -1.0260 -0.4577
11454SOL    HW235557   8.324   5.343   7.319 -1.0305 -0.7724 -0.6517
11455SOL     OW35558   4.708   1.804   3.587 -0.0621 -0.3334 -0.3659
11455SOL    HW135559   4.683   1.865   3.518  0.4908 -0.1927 -0.4437
11455SOL    HW235560   4.797   1.829   3.611 -0.8988  0.8905  1.7928
11456SOL     OW35561   3.029   0.936   1.226 -0.2442  0.4256 -0.3270
11456SOL    HW135562   3.034   0.951   1.320  2.4392  0.1559 -0.3343
11456SOL    HW235563   2.947   0.977   1.199  0.1025  2.7601  1.7446
11457SOL     OW35564   8.239   7.720   0.911 -0.3751 -0.2639 -0.5564
11457SOL    HW135565   8.168   7.674   0.955 -1.0622  1.3585  0.1227
11457SOL    HW235566   8.229   7.811   0.938  1.0003  0.2824 -1.7363
11458SOL     OW35567   2.752   4.399   2.520 -0.9168  0.3625  0.2075
11458SOL    HW135568   2.841   4.410   2.487 -0.7304 -0.3204  0.4521
11458SOL    HW235569   2.699   4.380   2.443 -0.9547  1.2911 -0.0066
11459SOL     OW35570   6.058   6.153   2.327 -0.0930 -0.3662  0.0539
11459SOL    HW135571   6.109   6.137   2.248 -1.1498 -2.2075 -0.3077
11459SOL    HW235572   6.040   6.247   2.325  1.1916 -0.1137 -1.0736
11460SOL     OW35573   1.030   8.214   1.079  0.1282  0.2165 -0.2196
11460SOL    HW135574   1.051   8.296   1.034 -0.7418  0.4853 -0.1501
11460SOL    HW235575   0.946   8.188   1.043  1.6442 -2.1672 -2.3642
11461SOL     OW35576   3.939   8.127   0.927  0.0067 -0.4441  0.0175
11461SOL    HW135577   4.017   8.164   0.886  1.2083  0.7447  3.0949
11461SOL    HW235578   3.968   8.101   1.014 -2.6113 -1.8594  0.5761
11462SOL     OW35579   3.020   1.651   2.194 -0.1478  0.0773 -0.0283
11462SOL    HW135580   3.070   1.714   2.246 -0.5213  0.8477 -0.5799
11462SOL    HW235581   3.040   1.672   2.103 -0.2278 -0.6489 -0.2213
11463SOL     OW35582   3.419   5.943   7.173  0.2141  0.1845 -0.3513
11463SOL    HW135583   3.482   5.884   7.214 -1.1682 -0.8717  0.3066
11463SOL    HW235584   3.355   5.963   7.241  0.0843  1.6638 -0.8521
11464SOL     OW35585   0.646   0.110   6.271 -0.1761 -0.2199 -0.3569
11464SOL    HW135586   0.580   0.171   6.303 -0.0048 -0.2184 -0.0095
11464SOL    HW235587   0.723   0.127   6.325  0.0149 -0.4326 -0.5601
11465SOL     OW35588   1.510   2.153   7.488 -0.3548 -0.1542  0.1988
11465SOL    HW135589   1.582   2.186   7.434  0.1257 -2.0366 -0.3777
11465SOL    HW235590   1.440   2.216   7.474  0.1193  0.0127 -1.8095
11466SOL     OW35591   2.680   8.521   3.848 -0.8075  0.8105 -0.0910
11466SOL    HW135592   2.631   8.521   3.931 -0.8820  1.2522 -0.1302
11466SOL    HW235593   2.621   8.564   3.786 -0.2749  1.5887 -0.0774
11467SOL     OW35594   4.941   4.034   3.768 -0.0264  0.3500 -0.0679
11467SOL    HW135595   4.923   3.953   3.816 -1.8647  1.3685  1.0597
11467SOL    HW235596   4.968   4.096   3.836  1.0457  0.8003 -0.8815
11468SOL     OW35597   1.885   3.884   1.979 -0.6465  0.5217 -0.1103
11468SOL    HW135598   1.916   3.967   2.015 -1.4466  0.3195  1.1012
11468SOL    HW235599   1.886   3.823   2.054 -0.7050 -0.3806 -0.8222
11469SOL     OW35600   6.923   6.857   1.977 -0.8327 -0.1506 -0.1136
11469SOL    HW135601   6.864   6.930   1.960  0.2982  1.5040  2.3735
11469SOL    HW235602   6.944   6.822   1.891 -1.9167  2.0909 -1.3747
11470SOL     OW35603   5.426   1.311   4.197 -0.0244 -0.0290 -0.1520
11470SOL    HW135604   5.415   1.251   4.124 -0.8672  0.1672 -0.1870
11470SOL    HW235605   5.510   1.355   4.179 -0.2175  0.0120 -0.9883
11471SOL     OW35606   5.877   3.951   7.047  0.1893 -0.0916  0.2166
11471SOL    HW135607   5.893   3.918   6.959  1.6452  0.2517  0.3237
11471SOL    HW235608   5.925   4.034   7.051 -0.6483  0.3835  1.0293
11472SOL     OW35609   3.331   8.520   5.981  0.3382 -0.2303  0.0652
11472SOL    HW135610   3.380   8.550   6.058 -0.2146 -0.4370  0.5009
11472SOL    HW235611   3.321   8.426   5.993 -1.6505  0.0304  0.8629
11473SOL     OW35612   1.488   5.200   5.986 -0.6477 -0.1638  0.3270
11473SOL    HW135613   1.501   5.213   6.080 -2.5491  2.3425  0.3499
11473SOL    HW235614   1.574   5.218   5.948 -0.2832  0.6497  1.4690
11474SOL     OW35615   7.808   4.220   3.623 -0.4565 -0.3869  0.5417
11474SOL    HW135616   7.745   4.155   3.590 -1.1740 -0.3388  1.7658
11474SOL    HW235617   7.839   4.183   3.706  3.6079 -2.0086 -1.3631
11475SOL     OW35618   2.260   8.059   4.213 -0.1586  0.6120 -0.4960
11475SOL    HW135619   2.172   8.023   4.211 -0.2241  0.7632 -0.3691
11475SOL    HW235620   2.247   8.154   4.205 -0.0093  0.6348 -0.4659
11476SOL     OW35621   2.266   5.161   0.163  0.1283 -0.6353 -0.6738
11476SOL    HW135622   2.312   5.225   0.109  1.8722 -0.5163  0.8435
11476SOL    HW235623   2.204   5.120   0.104  0.6462  0.7710 -2.2812
11477SOL     OW35624   4.721   5.529   7.049 -0.7244  0.0320 -0.0751
11477SOL    HW135625   4.701   5.516   7.141  0.1871  0.7479  0.2427
11477SOL    HW235626   4.789   5.465   7.030  0.0571  0.7797  0.1245
11478SOL     OW35627   7.303   2.906   3.477 -0.4123  0.2847  0.4538
11478SOL    HW135628   7.342   2.975   3.424  0.5216 -0.2790  0.3910
11478SOL    HW235629   7.258   2.850   3.415 -1.0039  0.7126  0.4841
11479SOL     OW35630   2.225   2.041   2.907  0.2649 -0.2486 -1.2039
11479SOL    HW135631   2.152   2.074   2.856 -1.2071 -1.8202 -0.2297
11479SOL    HW235632   2.234   1.949   2.881  0.6793 -0.5721 -0.0029
11480SOL     OW35633   3.218   1.280   3.022 -0.4918 -0.0938  0.7023
11480SOL    HW135634   3.187   1.305   2.935 -0.8334 -1.7579  0.3025
11480SOL    HW235635   3.257   1.359   3.058  0.0317  0.5269 -1.1270
11481SOL     OW35636   1.672   7.467   5.333 -0.3943  0.3218  0.0199
11481SOL    HW135637   1.765   7.472   5.354 -0.5150  0.3281  0.5937
11481SOL    HW235638   1.640   7.557   5.341 -0.2169  0.5216 -1.3667
11482SOL     OW35639   6.754   8.193   4.677 -0.3010  0.1990 -0.1264
11482SOL    HW135640   6.739   8.282   4.708 -1.4103 -0.2118  0.5790
11482SOL    HW235641   6.800   8.149   4.749 -1.0358 -0.1853  0.1170
11483SOL     OW35642   0.165   0.167   7.105  0.2803 -0.2745  0.1873
11483SOL    HW135643   0.173   0.224   7.182 -4.2977  0.3810  0.4719
11483SOL    HW235644   0.170   0.227   7.031 -0.6490 -0.0279  0.3058
11484SOL     OW35645   5.565   7.182   0.152 -0.2223  0.2770  0.3970
11484SOL    HW135646   5.503   7.213   0.219 -0.0053 -0.5815  1.0122
11484SOL    HW235647   5.512   7.127   0.094 -0.3289  0.7045  0.0854
11485SOL     OW35648   8.146   0.290   5.271  0.8232  0.2559  0.1900
11485SOL    HW135649   8.121   0.331   5.188  1.6979  0.4810  0.0265
11485SOL    HW235650   8.242   0.281   5.265  0.8247 -0.2844  0.9213
11486SOL     OW35651   4.106   1.028   6.409  0.1495 -0.3287 -0.5495
11486SOL    HW135652   4.168   1.079   6.462  0.9565 -0.9256 -0.8995
11486SOL    HW235653   4.034   1.010   6.469  1.1504 -1.1887  0.4628
11487SOL     OW35654   6.986   1.546   7.879  0.5126  0.1162  0.4359
11487SOL    HW135655   6.930   1.578   7.809 -0.6243  0.5554  1.4997
11487SOL    HW235656   6.966   1.452   7.885  0.9138 -0.0072 -0.0775
11488SOL     OW35657   2.485   0.935   3.496  0.1070 -0.6335 -0.2429
11488SOL    HW135658   2.461   0.843   3.504 -0.4443 -0.5450 -0.8165
11488SOL    HW235659   2.406   0.983   3.521  0.6782 -0.2880  1.0122
11489SOL     OW35660   0.264   4.040   8.240 -0.4890 -0.1434 -0.9283
11489SOL    HW135661   0.249   3.996   8.324 -0.6209  1.0940 -0.2905
11489SOL    HW235662   0.181   4.032   8.194 -0.9479  0.6418 -0.2468
11490SOL     OW35663   3.742   3.822   5.173 -0.0014  0.1209 -0.0682
11490SOL    HW135664   3.799   3.770   5.229  0.1695  0.5413  0.1568
11490SOL    HW235665   3.798   3.894   5.144 -0.4799  0.6632  0.3338
11491SOL     OW35666   5.219   6.896   7.436  0.3814  0.0853  0.4262
11491SOL    HW135667   5.153   6.835   7.470  0.7284  0.3831  1.6600
11491SOL    HW235668   5.244   6.858   7.351 -1.1044 -0.2215  0.0909
11492SOL     OW35669   1.901   0.575   6.207  0.1887 -0.1623  0.0005
11492SOL    HW135670   1.874   0.644   6.268 -0.7920 -1.1121  0.6565
11492SOL    HW235671   1.837   0.579   6.136  1.4747  1.1155 -1.1710
11493SOL     OW35672   2.107   1.463   1.893  0.6405 -0.0350 -0.2534
11493SOL    HW135673   2.163   1.438   1.966  0.5594 -1.3717 -0.6193
11493SOL    HW235674   2.018   1.446   1.925  0.4977  1.0186 -0.0667
11494SOL     OW35675   4.709   4.868   6.256  0.2011  0.1654  0.9098
11494SOL    HW135676   4.732   4.955   6.288  0.3014  0.0575  1.1265
11494SOL    HW235677   4.756   4.807   6.313  1.0531 -0.0156  0.0347
11495SOL     OW35678   4.358   7.352   0.648  0.2758 -0.7318 -0.4331
11495SOL    HW135679   4.422   7.314   0.708 -1.4952 -0.4389  1.7539
11495SOL    HW235680   4.326   7.278   0.597  1.4952 -1.0587 -0.7562
11496SOL     OW35681   7.816   3.615   0.872 -0.2279 -0.1116 -0.3357
11496SOL    HW135682   7.811   3.710   0.867  0.1014 -0.1380 -1.4454
11496SOL    HW235683   7.897   3.593   0.827  0.2389 -0.8621  0.8246
11497SOL     OW35684   5.027   7.744   1.140 -0.4364 -0.0516  0.0590
11497SOL    HW135685   5.107   7.759   1.090 -0.3637 -0.3268  0.0959
11497SOL    HW235686   5.046   7.670   1.197  1.6344  3.7451  5.0207
11498SOL     OW35687   5.948   5.812   0.858 -0.7098  0.3145  0.1035
11498SOL    HW135688   6.041   5.789   0.850 -0.2734  1.8311  0.4745
11498SOL    HW235689   5.929   5.800   0.951 -1.3526 -1.5027 -0.2091
11499SOL     OW35690   3.773   2.044   3.626  0.0808  0.0390 -0.2395
11499SOL    HW135691   3.813   1.979   3.569 -0.1642 -0.0972 -0.2575
11499SOL    HW235692   3.679   2.030   3.616  0.0327  0.1984 -0.0169
11500SOL     OW35693   4.336   2.031   3.764  0.2071  0.1638  0.0537
11500SOL    HW135694   4.245   2.037   3.737 -0.0923  1.0622  1.1937
11500SOL    HW235695   4.343   1.946   3.807 -0.9151  1.2835  2.6863
11501SOL     OW35696   2.479   4.570   1.281  0.3516  0.2583  0.4923
11501SOL    HW135697   2.483   4.477   1.257  0.6923 -0.0602  1.7153
11501SOL    HW235698   2.550   4.610   1.232  1.3391 -0.4608  1.2909
11502SOL     OW35699   5.596   0.658   3.246 -0.3688 -0.9824  0.5031
11502SOL    HW135700   5.553   0.740   3.270  0.8381 -0.3705  0.6255
11502SOL    HW235701   5.606   0.611   3.328  0.8895 -0.2845  0.7688
11503SOL     OW35702   2.300   2.040   1.431  0.6368  0.0760 -0.2629
11503SOL    HW135703   2.391   2.068   1.432  0.3574  1.1250 -1.4087
11503SOL    HW235704   2.250   2.121   1.422 -0.3237 -0.6139 -1.4324
11504SOL     OW35705   7.304   0.944   2.642 -0.2113  0.0355 -0.4895
11504SOL    HW135706   7.236   0.907   2.586 -0.8113  0.6112 -0.1608
11504SOL    HW235707   7.362   0.871   2.661  1.1860  0.2317 -3.4869
11505SOL     OW35708   4.322   6.962   3.429 -0.8463  0.3091 -0.1451
11505SOL    HW135709   4.313   7.037   3.487 -0.3424 -0.7559  1.3797
11505SOL    HW235710   4.258   6.899   3.461  0.3342 -0.8070  0.1182
11506SOL     OW35711   5.983   5.915   4.677 -0.3060  0.4726  0.0225
11506SOL    HW135712   5.972   5.954   4.764 -0.0684 -0.5245  0.5181
11506SOL    HW235713   5.997   5.989   4.619  1.6006  1.0676  1.1512
11507SOL     OW35714   0.657   6.352   6.470  0.0050 -0.0404  0.3715
11507SOL    HW135715   0.660   6.351   6.565 -1.4609  0.7117  0.4513
11507SOL    HW235716   0.596   6.422   6.448  1.1709  0.5587 -1.1591
11508SOL     OW35717   0.646   8.336   0.259  0.4981 -0.2519 -0.0510
11508SOL    HW135718   0.629   8.409   0.200  1.3001  0.3817  0.4942
11508SOL    HW235719   0.561   8.318   0.300  0.2624  0.2651 -0.3026
11509SOL     OW35720   3.428   2.998   1.026 -0.5132 -0.5447  0.7060
11509SOL    HW135721   3.339   2.967   1.012 -0.4640  0.1110 -1.3761
11509SOL    HW235722   3.419   3.069   1.089 -1.2540 -1.4545  1.6507
11510SOL     OW35723   3.737   3.227   6.816 -0.0650 -0.7129  0.2690
11510SOL    HW135724   3.746   3.317   6.846 -1.0199  0.0471 -1.5584
11510SOL    HW235725   3.673   3.189   6.876 -1.1017  0.4254 -0.0674
11511SOL     OW35726   1.839   4.529   7.740  0.5266 -0.6283 -0.3994
11511SOL    HW135727   1.838   4.592   7.668 -0.5566 -1.2694 -0.9826
11511SOL    HW235728   1.858   4.445   7.698 -1.6658 -1.2791 -0.2305
11512SOL     OW35729   8.004   4.386   0.921 -0.3625 -0.3288  0.2667
11512SOL    HW135730   8.024   4.478   0.904  1.2551 -0.7832 -0.4844
11512SOL    HW235731   7.910   4.378   0.903 -0.5392  1.1595  0.3825
11513SOL     OW35732   2.947   6.930   3.716  0.0302 -0.3551  0.6219
11513SOL    HW135733   2.923   7.013   3.757 -1.3811  1.1707 -2.8764
11513SOL    HW235734   2.869   6.875   3.725 -0.1167 -0.1916  0.3297
11514SOL     OW35735   2.778   1.180   3.098 -0.2624  0.1862 -0.3513
11514SOL    HW135736   2.771   1.253   3.160 -1.2465 -0.1487 -0.0499
11514SOL    HW235737   2.721   1.113   3.134  0.1331 -0.4923 -0.9737
11515SOL     OW35738   2.558   0.932   1.911  0.4072 -0.0965 -0.1170
11515SOL    HW135739   2.614   0.887   1.973  1.4173 -0.5397 -1.3015
11515SOL    HW235740   2.523   1.007   1.958  0.8794 -0.6024  1.0584
11516SOL     OW35741   0.334   4.803   1.256 -0.7519  0.3087 -0.2000
11516SOL    HW135742   0.365   4.816   1.166 -1.2705  1.5953 -0.2137
11516SOL    HW235743   0.357   4.885   1.301 -0.0409 -0.5081  0.9883
11517SOL     OW35744   3.459   1.171   6.018 -0.5492 -0.1291 -0.0921
11517SOL    HW135745   3.551   1.187   6.041 -0.6884 -2.0089  2.0586
11517SOL    HW235746   3.414   1.161   6.101 -2.1882 -1.9277 -1.1047
11518SOL     OW35747   1.761   3.039   5.898  0.1672 -0.0112 -0.0024
11518SOL    HW135748   1.704   2.971   5.934  0.3702 -0.5069 -0.6077
11518SOL    HW235749   1.709   3.119   5.905 -1.1451 -0.6513 -1.7331
11519SOL     OW35750   4.338   6.174   3.600  0.3346 -0.3497  0.6750
11519SOL    HW135751   4.418   6.134   3.633  0.9812 -1.2268 -1.6995
11519SOL    HW235752   4.368   6.246   3.544 -0.6429  0.5392  1.2535
11520SOL     OW35753   8.552   1.717   1.021 -0.2891  0.4583 -0.0631
11520SOL    HW135754   8.607   1.780   0.974 -0.1998 -0.9941 -2.0324
11520SOL    HW235755   8.467   1.720   0.976 -1.1630  1.1116  1.5677
11521SOL     OW35756   6.964   0.457   3.519  0.1026  0.0601 -0.6694
11521SOL    HW135757   6.935   0.544   3.547  3.1911  1.0648 -0.2749
11521SOL    HW235758   6.925   0.397   3.582 -1.5665  1.1840 -0.5720
11522SOL     OW35759   3.269   3.206   1.708 -0.0411 -0.2757 -0.4977
11522SOL    HW135760   3.364   3.211   1.711 -0.0661  0.2132 -0.3521
11522SOL    HW235761   3.247   3.214   1.615 -0.0183  1.5765 -0.3830
11523SOL     OW35762   0.181   3.932   8.480  0.3493 -0.5389 -1.0654
11523SOL    HW135763   0.186   3.861   8.545  1.3531 -0.3228 -0.8860
11523SOL    HW235764   0.145   4.006   8.529  1.1995 -0.3462 -0.7022
11524SOL     OW35765   8.301   1.350   3.809 -0.5318 -0.1931  0.5626
11524SOL    HW135766   8.236   1.416   3.831  0.2187  1.5659 -2.0372
11524SOL    HW235767   8.253   1.285   3.757 -0.5251  0.3209 -0.0937
11525SOL     OW35768   1.458   2.297   7.790 -0.6525 -0.3385  0.3821
11525SOL    HW135769   1.464   2.261   7.702 -1.2246 -2.0238  0.9920
11525SOL    HW235770   1.370   2.336   7.794 -0.1767  0.8258 -0.1562
11526SOL     OW35771   0.575   0.629   2.453  0.1718 -0.1390  0.2245
11526SOL    HW135772   0.596   0.537   2.469 -0.4281 -0.7240 -2.0041
11526SOL    HW235773   0.490   0.627   2.409  0.4788  1.4057 -0.4974
11527SOL     OW35774   6.054   2.671   1.254 -0.1794  0.2531 -0.8752
11527SOL    HW135775   6.121   2.687   1.321 -2.5527  2.1432  1.2563
11527SOL    HW235776   5.973   2.703   1.293 -2.2121 -1.0338 -3.6890
11528SOL     OW35777   3.043   5.222   5.114  0.0404  0.5834 -0.0100
11528SOL    HW135778   2.981   5.254   5.179 -1.3474 -2.2761  0.2313
11528SOL    HW235779   2.989   5.178   5.048  1.6897 -1.2048 -0.2699
11529SOL     OW35780   6.979   1.978   5.189  0.5434 -0.0751 -0.0752
11529SOL    HW135781   6.913   2.030   5.144  1.7572 -0.9499 -3.2102
11529SOL    HW235782   7.037   2.042   5.229 -0.7656  0.7717  0.5218
11530SOL     OW35783   6.590   3.969   6.347 -0.1952 -0.2326 -0.1718
11530SOL    HW135784   6.518   4.015   6.389  0.7712 -0.0884  1.4301
11530SOL    HW235785   6.651   4.039   6.321  0.3894 -0.4692  0.5289
11531SOL     OW35786   7.068   5.684   4.887 -0.1438 -0.7009 -0.3738
11531SOL    HW135787   7.039   5.603   4.845 -0.3138 -1.3970  1.0181
11531SOL    HW235788   7.008   5.751   4.854  0.6021 -0.9277 -2.2795
11532SOL     OW35789   7.184   6.156   6.499 -0.1656  0.0613 -0.1814
11532SOL    HW135790   7.261   6.194   6.541 -0.4985  0.5968 -0.0446
11532SOL    HW235791   7.116   6.222   6.509 -0.6023 -0.3393 -0.4426
11533SOL     OW35792   6.795   6.362   4.523 -0.3867  0.1732  0.0925
11533SOL    HW135793   6.727   6.412   4.478  1.4246  1.4294 -1.4149
11533SOL    HW235794   6.857   6.338   4.454  0.7422 -0.8926  1.4111
11534SOL     OW35795   1.950   2.954   0.238 -0.2618  0.2295  0.1194
11534SOL    HW135796   1.855   2.967   0.243 -0.4126 -0.7971  0.1567
11534SOL    HW235797   1.970   2.966   0.145 -0.9035 -2.3684 -0.4275
11535SOL     OW35798   7.387   7.120   4.590 -0.3864 -0.1257  0.0192
11535SOL    HW135799   7.381   7.061   4.665 -0.3490  0.2507  0.3246
11535SOL    HW235800   7.413   7.204   4.629  0.8343 -0.2134 -0.5489
11536SOL     OW35801   2.696   4.679   4.696  0.2909 -0.4777  1.2546
11536SOL    HW135802   2.664   4.695   4.607  0.7667  1.8089  1.4474
11536SOL    HW235803   2.623   4.636   4.740 -0.5800 -0.0676  0.2428
11537SOL     OW35804   6.224   0.715   7.538  0.2485  0.1075 -0.4819
11537SOL    HW135805   6.265   0.662   7.470  0.5137 -0.2382 -0.0615
11537SOL    HW235806   6.294   0.771   7.571  0.2520 -0.0872 -0.1477
11538SOL     OW35807   2.984   2.126   1.199 -0.1328  0.0194 -0.0414
11538SOL    HW135808   3.001   2.220   1.199  1.4082 -0.2216  0.2957
11538SOL    HW235809   2.986   2.101   1.107  0.5829  0.1590 -0.0736
11539SOL     OW35810   0.256   1.230   3.524 -0.1009 -0.0340 -0.0304
11539SOL    HW135811   0.266   1.272   3.609  0.4443 -1.4332  0.6303
11539SOL    HW235812   0.247   1.137   3.544 -1.9555 -0.2081 -1.3937
11540SOL     OW35813   8.146   3.356   5.268 -0.4812 -0.1587  0.3256
11540SOL    HW135814   8.080   3.290   5.246  0.7104 -2.0200  1.9965
11540SOL    HW235815   8.223   3.330   5.217  0.3827 -0.8613  1.9199
11541SOL     OW35816   1.539   8.403   5.086 -0.3039  0.0978  0.6074
11541SOL    HW135817   1.444   8.402   5.096 -0.2777 -0.0133  0.8543
11541SOL    HW235818   1.565   8.491   5.112 -0.1197 -0.5159  2.6789
11542SOL     OW35819   5.098   1.034   1.687  0.3337 -0.5573  0.3516
11542SOL    HW135820   5.076   1.056   1.777  2.4953  0.9327  0.5947
11542SOL    HW235821   5.154   0.957   1.695  0.6463 -0.3371  0.3141
11543SOL     OW35822   3.329   5.497   4.079  0.5793  0.1767  0.3808
11543SOL    HW135823   3.313   5.544   4.161 -0.0811 -0.8288  0.8562
11543SOL    HW235824   3.307   5.560   4.010 -1.2454  0.2656  0.9976
11544SOL     OW35825   0.199   7.765   0.992 -0.1246 -0.5076  0.2270
11544SOL    HW135826   0.251   7.736   0.917  0.1477 -1.0414  0.6137
11544SOL    HW235827   0.155   7.845   0.962  0.7563 -0.1643 -0.1708
11545SOL     OW35828   4.654   7.088   3.694 -0.1732 -0.0904  0.2501
11545SOL    HW135829   4.646   7.059   3.785 -0.7771  1.3445  0.6863
11545SOL    HW235830   4.664   7.008   3.643  0.2736 -0.9060  1.5942
11546SOL     OW35831   6.345   2.292   2.721  0.3034  0.4972  0.4523
11546SOL    HW135832   6.393   2.285   2.638  0.2634 -0.1158  0.4742
11546SOL    HW235833   6.327   2.385   2.731 -1.6556  0.3689 -1.3350
11547SOL     OW35834   4.676   6.373   0.887  0.4693  0.2974 -0.4076
11547SOL    HW135835   4.719   6.409   0.810  0.6548  0.5628 -0.1840
11547SOL    HW235836   4.649   6.450   0.937  2.3670  0.1620  0.9203
11548SOL     OW35837   3.259   5.187   6.849 -0.0656 -0.0378 -0.1423
11548SOL    HW135838   3.282   5.267   6.802  0.2407 -0.5538 -0.8920
11548SOL    HW235839   3.340   5.137   6.853 -0.7415 -1.4000 -1.8681
11549SOL     OW35840   7.385   6.181   7.052 -0.3736  0.2562  0.2948
11549SOL    HW135841   7.350   6.172   7.140  0.3377 -1.6717  0.4117
11549SOL    HW235842   7.337   6.117   6.999  0.4438  0.1264 -0.3215
11550SOL     OW35843   1.561   0.288   1.076  0.4383  0.1896 -0.1024
11550SOL    HW135844   1.506   0.343   1.132  1.1274  0.7834  0.0197
11550SOL    HW235845   1.555   0.201   1.114 -1.1315  0.0346 -0.6331
11551SOL     OW35846   6.118   0.595   4.720  0.0510  0.6497 -0.7390
11551SOL    HW135847   6.208   0.573   4.697  0.2873  0.6292  0.1700
11551SOL    HW235848   6.126   0.655   4.794 -0.6902 -1.9062  1.5641
11552SOL     OW35849   1.054   4.090   2.878 -0.4226  0.0894  0.2990
11552SOL    HW135850   0.985   4.155   2.861  0.3651  0.6333 -1.0034
11552SOL    HW235851   1.136   4.137   2.860  0.1887 -1.1171 -0.1944
11553SOL     OW35852   3.081   6.286   5.647  0.0700 -0.1340  0.0723
11553SOL    HW135853   3.143   6.342   5.694 -0.2365 -2.7576  4.0975
11553SOL    HW235854   3.136   6.225   5.598  0.6552 -0.6176  1.2896
11554SOL     OW35855   1.713   6.183   8.266  0.1364 -0.3530  0.0415
11554SOL    HW135856   1.771   6.156   8.194 -2.3684 -2.9817 -1.1773
11554SOL    HW235857   1.667   6.259   8.232  0.7307 -0.0778 -0.1617
11555SOL     OW35858   0.653   5.059   4.259 -0.6403  0.1732 -0.8040
11555SOL    HW135859   0.720   4.991   4.249 -1.6513 -0.8847 -0.7134
11555SOL    HW235860   0.696   5.129   4.307  0.3197 -0.6041 -0.4891
11556SOL     OW35861   2.467   1.000   5.717  0.3767  0.3976  0.0077
11556SOL    HW135862   2.531   0.934   5.746  0.6150  0.3768 -0.5542
11556SOL    HW235863   2.465   1.064   5.789  0.5824  0.0829  0.2968
11557SOL     OW35864   8.472   6.936   4.909  0.4636  0.0014 -0.1704
11557SOL    HW135865   8.532   6.999   4.868 -1.3152  0.1099 -2.8583
11557SOL    HW235866   8.387   6.956   4.870 -0.6927 -2.2865  1.0161
11558SOL     OW35867   2.605   4.060   6.355  0.1065  0.3020  0.2634
11558SOL    HW135868   2.651   4.125   6.303 -1.0157  2.2886  1.5967
11558SOL    HW235869   2.535   4.028   6.298  1.6608 -1.0627 -0.9777
11559SOL     OW35870   2.047   1.718   6.673 -0.0690 -0.6358 -1.0433
11559SOL    HW135871   2.133   1.695   6.710 -0.8804 -0.9249  0.7750
11559SOL    HW235872   2.050   1.684   6.584  0.7619 -3.0205 -0.1815
11560SOL     OW35873   1.089   3.954   8.539  0.1292 -0.2915 -0.5806
11560SOL    HW135874   1.126   3.998   8.462  3.1370 -3.0126 -0.8987
11560SOL    HW235875   1.142   3.983   8.612  0.1106 -0.9963 -0.2781
11561SOL     OW35876   0.610   6.917   8.395  0.1065  0.3433 -0.0565
11561SOL    HW135877   0.639   6.995   8.442  1.8829 -0.7319  0.7185
11561SOL    HW235878   0.635   6.934   8.304  0.5616  0.6537  0.1211
11562SOL     OW35879   1.653   7.627   5.658 -0.2717  0.2405 -0.3547
11562SOL    HW135880   1.652   7.721   5.639 -1.1203 -0.2706 -3.3701
11562SOL    HW235881   1.563   7.599   5.640 -0.4079 -0.9652  1.9067
11563SOL     OW35882   5.964   3.199   0.975  0.2680 -0.0355 -0.0586
11563SOL    HW135883   5.935   3.270   0.918  0.6334  1.2984  1.3554
11563SOL    HW235884   5.884   3.169   1.018  0.4179  1.1380  1.0857
11564SOL     OW35885   1.990   0.368   5.741  0.0698  0.2421  0.1886
11564SOL    HW135886   1.901   0.400   5.750 -0.0714 -0.2819  0.7088
11564SOL    HW235887   1.999   0.348   5.648 -0.7807 -0.9036  0.3296
11565SOL     OW35888   1.363   0.237   8.542  0.2451 -0.5442  0.8356
11565SOL    HW135889   1.334   0.310   8.488 -0.2841 -2.3124 -1.4190
11565SOL    HW235890   1.372   0.164   8.481 -1.0572 -2.8794  3.2091
11566SOL     OW35891   1.135   3.077   4.806 -0.3568  0.1787  0.3318
11566SOL    HW135892   1.205   3.133   4.772 -0.2453 -0.2795 -0.2145
11566SOL    HW235893   1.180   3.018   4.867 -0.0758 -0.7835 -0.7798
11567SOL     OW35894   0.106   3.040   1.939  0.0006  0.1244 -0.4525
11567SOL    HW135895   0.174   2.982   1.972 -0.5556  0.4712  1.4322
11567SOL    HW235896   0.089   3.010   1.850  1.3529 -1.0861 -0.3314
11568SOL     OW35897   0.885   3.063   3.790  0.4420 -0.5012 -0.0448
11568SOL    HW135898   0.802   3.111   3.790  1.5990  1.6519 -0.9426
11568SOL    HW235899   0.878   3.003   3.865 -1.2646  0.8000  0.9264
11569SOL     OW35900   1.040   6.484   4.139 -0.5085  0.9643 -0.3240
11569SOL    HW135901   0.997   6.404   4.110  0.4073  0.5335 -0.5159
11569SOL    HW235902   1.095   6.511   4.066 -2.0908  2.7527 -0.9448
11570SOL     OW35903   7.893   7.825   7.502  0.7132 -0.4885 -0.1595
11570SOL    HW135904   7.845   7.742   7.509 -0.7900  0.3300 -0.4989
11570SOL    HW235905   7.909   7.835   7.409 -1.1140  0.6649 -0.4011
11571SOL     OW35906   6.735   2.116   2.725  0.0362  0.1449  1.0469
11571SOL    HW135907   6.663   2.156   2.774  0.3050  1.5316  0.3785
11571SOL    HW235908   6.813   2.160   2.759  0.4782 -0.6521  1.0890
11572SOL     OW35909   6.232   0.498   8.509  0.9873 -0.0229 -0.7800
11572SOL    HW135910   6.255   0.528   8.421  0.2474 -1.4328 -1.4913
11572SOL    HW235911   6.144   0.461   8.499  1.2039 -0.8937  0.3856
11573SOL     OW35912   3.622   3.597   0.355 -1.1232 -0.5267  0.1735
11573SOL    HW135913   3.640   3.647   0.275 -1.7690  0.5209  0.6580
11573SOL    HW235914   3.624   3.505   0.327  2.5467 -0.4457 -0.2688
11574SOL     OW35915   1.701   8.568   2.826  0.2495  0.2150 -0.4060
11574SOL    HW135916   1.735   8.603   2.908 -0.6039 -0.9176  0.4663
11574SOL    HW235917   1.608   8.591   2.826 -0.0295 -0.8543 -0.4505
11575SOL     OW35918   7.506   5.815   2.218  0.0577 -0.1788  0.1453
11575SOL    HW135919   7.554   5.734   2.235  1.6967  0.4352 -1.3197
11575SOL    HW235920   7.488   5.813   2.124 -2.6160 -0.2351  0.5615
11576SOL     OW35921   3.433   2.960   3.722 -0.3958 -0.0082 -0.6915
11576SOL    HW135922   3.436   2.889   3.658  0.5820  0.3749 -1.0908
11576SOL    HW235923   3.467   3.036   3.675 -0.8140  0.5723 -0.0742
11577SOL     OW35924   2.201   4.284   2.435 -0.5861  0.0206  0.3331
11577SOL    HW135925   2.287   4.316   2.461  0.4136 -2.0044 -0.2895
11577SOL    HW235926   2.176   4.223   2.505 -1.6419  0.7717  0.6320
11578SOL     OW35927   4.015   2.585   4.525 -0.1695 -0.4966 -0.0163
11578SOL    HW135928   4.030   2.493   4.505 -0.0976 -0.3309 -0.7652
11578SOL    HW235929   3.923   2.600   4.503 -0.5793 -0.7177  1.4464
11579SOL     OW35930   3.753   5.531   8.339 -0.4129  0.1711 -0.8588
11579SOL    HW135931   3.803   5.588   8.280  3.5340 -2.4658 -0.4372
11579SOL    HW235932   3.773   5.564   8.426 -0.3526 -0.2151 -0.7270
11580SOL     OW35933   6.409   7.176   3.718 -0.2090  0.2992 -0.0267
11580SOL    HW135934   6.355   7.211   3.789  1.2902  3.6608 -0.3927
11580SOL    HW235935   6.462   7.108   3.760 -0.3109  1.2790  1.7785
11581SOL     OW35936   2.389   4.786   5.108  0.5693 -0.2920 -0.9558
11581SOL    HW135937   2.460   4.833   5.066 -0.1396  2.9398  1.1161
11581SOL    HW235938   2.363   4.842   5.181 -2.7502 -2.2935 -0.3956
11582SOL     OW35939   1.087   6.741   3.981  0.6949  0.4139  0.4230
11582SOL    HW135940   1.041   6.749   4.065 -0.7444  1.4172 -0.4226
11582SOL    HW235941   1.026   6.778   3.917  2.4363  1.1959 -0.8425
11583SOL     OW35942   4.322   1.059   1.650 -0.1802  0.2027  0.0285
11583SOL    HW135943   4.242   1.109   1.670 -0.9714 -1.7136  2.1460
11583SOL    HW235944   4.292   0.987   1.595  0.3446  0.2227 -0.2846
11584SOL     OW35945   4.032   1.182   2.206 -0.7472  0.1512  0.1625
11584SOL    HW135946   4.061   1.091   2.212  0.6720  0.6140  1.0417
11584SOL    HW235947   4.083   1.219   2.134 -0.2907  0.5706  0.6851
11585SOL     OW35948   6.265   1.739   1.285  0.4805 -0.1795 -0.0297
11585SOL    HW135949   6.180   1.752   1.243 -0.3556  2.1240  2.1123
11585SOL    HW235950   6.253   1.664   1.343  0.0591 -0.1687 -0.1017
11586SOL     OW35951   5.736   7.379   1.038 -0.2602 -0.0411  0.1330
11586SOL    HW135952   5.664   7.398   1.099  0.6597  0.6643  1.0222
11586SOL    HW235953   5.815   7.398   1.088  0.5633 -1.0763 -0.7475
11587SOL     OW35954   1.766   3.481   3.610  0.4670 -0.5078 -0.5443
11587SOL    HW135955   1.741   3.553   3.666 -0.5159 -1.6872  0.6010
11587SOL    HW235956   1.785   3.409   3.670  0.9111 -1.3597 -1.6642
11588SOL     OW35957   7.145   2.966   5.261 -0.8945  0.2260  0.3788
11588SOL    HW135958   7.129   2.872   5.253 -0.2590 -0.0041  1.5675
11588SOL    HW235959   7.232   2.979   5.223  0.8087 -0.3832  3.6880
11589SOL     OW35960   3.473   2.567   8.512  0.2382 -0.4070 -0.3348
11589SOL    HW135961   3.394   2.586   8.563  0.3922 -1.2552  0.2472
11589SOL    HW235962   3.448   2.491   8.458  0.0552  0.5231 -1.5971
11590SOL     OW35963   1.513   1.099   4.070 -0.2301  0.3150 -0.1055
11590SOL    HW135964   1.544   1.082   3.981  0.6085 -2.0440  0.5701
11590SOL    HW235965   1.558   1.034   4.124 -1.5530  0.9763  1.8984
11591SOL     OW35966   8.265   1.236   0.594  0.2768  0.0382  0.2866
11591SOL    HW135967   8.346   1.286   0.581  0.1349  0.1903 -0.0328
11591SOL    HW235968   8.213   1.256   0.517 -0.2243  0.2431  0.6716
11592SOL     OW35969   6.319   7.917   5.020 -0.5840  0.7361  0.1060
11592SOL    HW135970   6.224   7.929   5.022 -0.8767 -0.9982  2.6115
11592SOL    HW235971   6.330   7.822   5.014  0.9192  0.7595  1.7881
11593SOL     OW35972   7.158   1.324   0.307 -0.1818  0.0150  0.7128
11593SOL    HW135973   7.210   1.303   0.229 -1.3895  0.3609 -0.2117
11593SOL    HW235974   7.068   1.322   0.277 -0.6335  0.9508  1.9341
11594SOL     OW35975   6.332   2.638   4.434 -0.1034  0.3609 -0.1210
11594SOL    HW135976   6.391   2.647   4.360  0.2069  0.8155  0.1777
11594SOL    HW235977   6.275   2.715   4.428  1.7073  1.9266  1.6908
11595SOL     OW35978   8.581   4.784   4.087 -0.4069 -0.3641  0.0410
11595SOL    HW135979   8.580   4.697   4.127  3.1590 -0.3957  0.3760
11595SOL    HW235980   8.597   4.844   4.159  1.0494  0.1051 -0.6311
11596SOL     OW35981   5.656   6.180   3.055  0.0891 -0.1501 -0.1229
11596SOL    HW135982   5.661   6.241   2.981  1.9519 -1.4028 -1.1006
11596SOL    HW235983   5.742   6.185   3.096  0.1193 -1.7706  0.0690
11597SOL     OW35984   4.553   4.437   6.477 -0.0176 -0.0705  0.5619
11597SOL    HW135985   4.606   4.360   6.458 -0.8926 -0.5700  0.1027
11597SOL    HW235986   4.502   4.412   6.554  0.1283  0.2788  0.7762
11598SOL     OW35987   0.172   7.268   0.294 -0.3592  0.1947 -0.3309
11598SOL    HW135988   0.098   7.325   0.270 -2.1250 -1.9867 -0.3674
11598SOL    HW235989   0.207   7.307   0.374 -2.6922  0.3675  0.6827
11599SOL     OW35990   7.738   3.638   4.572 -0.3302 -0.0896 -0.0174
11599SOL    HW135991   7.719   3.688   4.651 -0.8059  2.5004 -1.6704
11599SOL    HW235992   7.662   3.651   4.515 -0.1173 -2.0786 -0.8621
11600SOL     OW35993   7.840   0.936   3.252  0.8910  0.1033 -0.2695
11600SOL    HW135994   7.891   0.902   3.325  0.9904 -0.7356 -0.7258
11600SOL    HW235995   7.844   0.868   3.185 -0.4188  0.2172 -0.5000
11601SOL     OW35996   1.675   7.041   4.333 -0.3046 -0.0070  0.4964
11601SOL    HW135997   1.720   7.109   4.283  1.1263 -0.1240  1.5416
11601SOL    HW235998   1.690   7.065   4.425  0.1659 -1.6622  0.8924
11602SOL     OW35999   1.281   0.793   2.053 -0.2138 -0.3805  0.5122
11602SOL    HW136000   1.328   0.812   1.972 -2.1443 -0.9706 -0.8101
11602SOL    HW236001   1.301   0.701   2.071  0.5779 -0.1281  0.9975
11603SOL     OW36002   0.221   4.748   0.722  0.0870  0.2712 -0.1634
11603SOL    HW136003   0.296   4.799   0.691 -0.1421  0.6767 -0.0436
11603SOL    HW236004   0.212   4.678   0.656 -0.5236  1.2345 -1.1356
11604SOL     OW36005   3.714   6.443   4.836  0.3982 -0.4322 -0.2079
11604SOL    HW136006   3.797   6.486   4.815 -0.3242  0.3507 -1.6578
11604SOL    HW236007   3.714   6.364   4.781  0.4962 -0.8482  0.3717
11605SOL     OW36008   0.073   4.438   2.932 -0.1641  0.5730  0.7326
11605SOL    HW136009  -0.004   4.406   2.885 -1.1287  3.7570 -0.0813
11605SOL    HW236010   0.059   4.410   3.022 -1.1210 -0.7747  0.2079
11606SOL     OW36011   2.119   4.783   0.921  0.0960  0.0347  0.6107
11606SOL    HW136012   2.104   4.688   0.929 -3.6740  0.3587 -0.6615
11606SOL    HW236013   2.095   4.817   1.007 -0.8975  0.0044  0.3578
11607SOL     OW36014   1.401   4.171   1.881 -0.7447  0.2802  0.8646
11607SOL    HW136015   1.493   4.195   1.874 -0.8310  0.3030 -0.2486
11607SOL    HW236016   1.402   4.077   1.899 -0.5205 -0.0381 -0.7019
11608SOL     OW36017   5.230   1.475   4.935 -0.0697 -0.3790  0.1260
11608SOL    HW136018   5.144   1.442   4.958 -0.8780  1.5342  0.0451
11608SOL    HW236019   5.267   1.409   4.877 -2.5847 -0.0295 -2.0588
11609SOL     OW36020   1.581   6.097   0.576  0.0634 -0.5734  0.5863
11609SOL    HW136021   1.499   6.138   0.550 -0.0045 -0.7499  0.5234
11609SOL    HW236022   1.565   6.003   0.569  0.5448 -0.6054 -0.2849
11610SOL     OW36023   1.216   5.071   6.677  0.0088  0.4139  0.3953
11610SOL    HW136024   1.158   5.080   6.753 -0.8994  1.2167 -0.3637
11610SOL    HW236025   1.269   5.151   6.678  0.5982  0.0335  0.6452
11611SOL     OW36026   5.102   7.027   4.552  0.1577  0.0550  0.2651
11611SOL    HW136027   5.159   7.088   4.600 -0.5672 -0.3585  1.7043
11611SOL    HW236028   5.027   7.081   4.525 -0.4505 -0.1576  1.4780
11612SOL     OW36029   6.358   1.534   0.957  0.0685  0.4725 -0.5551
11612SOL    HW136030   6.316   1.604   0.907 -1.4712 -0.9802 -1.4095
11612SOL    HW236031   6.385   1.471   0.890  0.9034 -0.0226  0.2336
11613SOL     OW36032   7.329   2.790   1.261 -0.2080  0.2075 -0.3044
11613SOL    HW136033   7.280   2.855   1.311  0.9087  0.5905  0.3486
11613SOL    HW236034   7.311   2.811   1.169 -0.2825  1.1187 -0.0905
11614SOL     OW36035   1.633   7.771   0.672  0.2268 -0.2816 -0.2409
11614SOL    HW136036   1.585   7.816   0.741  1.1457 -0.3273  0.4295
11614SOL    HW236037   1.578   7.783   0.594 -0.7828 -0.1678  0.4621
11615SOL     OW36038   7.993   5.809   0.335 -0.1419  0.5456  0.1430
11615SOL    HW136039   7.919   5.762   0.297 -0.6286  0.5238  1.1078
11615SOL    HW236040   7.977   5.901   0.314  0.7710  0.3405 -1.6796
11616SOL     OW36041   4.079   8.222   3.669 -0.0770  0.1242 -0.0211
11616SOL    HW136042   4.050   8.230   3.760  0.0012 -0.3571  0.0488
11616SOL    HW236043   4.171   8.249   3.670  0.1682 -0.7113  0.1999
11617SOL     OW36044   4.128   5.114   1.567 -0.0429  0.2579 -0.5482
11617SOL    HW136045   4.190   5.110   1.639 -0.7222 -1.3148  0.0035
11617SOL    HW236046   4.168   5.172   1.503  1.9481 -0.6141 -0.1666
11618SOL     OW36047   6.335   1.198   2.327  0.1975  0.4163  0.3044
11618SOL    HW136048   6.265   1.259   2.349 -0.6098  0.0516 -1.1328
11618SOL    HW236049   6.367   1.167   2.412 -2.6816 -0.8657  1.0372
11619SOL     OW36050   7.134   5.090   0.735  0.0645 -0.0010 -0.5063
11619SOL    HW136051   7.183   5.172   0.740  1.9286 -1.0311 -1.1563
11619SOL    HW236052   7.120   5.065   0.826 -0.0783  0.7494 -0.3082
11620SOL     OW36053   0.439   0.538   7.372  0.1991 -0.0364  0.9241
11620SOL    HW136054   0.477   0.579   7.294  0.8287 -2.4637 -0.1290
11620SOL    HW236055   0.499   0.467   7.394 -1.2453 -0.9371  2.1758
11621SOL     OW36056   1.536   0.908   2.517 -0.0963 -0.2496 -0.3982
11621SOL    HW136057   1.562   0.817   2.511 -0.5740 -0.3354 -1.5354
11621SOL    HW236058   1.441   0.906   2.504 -0.5302  0.1833  2.1503
11622SOL     OW36059   7.318   6.401   4.733  0.6460  0.1979 -0.0463
11622SOL    HW136060   7.237   6.444   4.704  0.1692 -0.6116  0.0550
11622SOL    HW236061   7.290   6.314   4.760  1.6630 -0.3376 -0.6602
11623SOL     OW36062   2.588   3.769   7.325 -0.0100  0.4470 -0.3294
11623SOL    HW136063   2.655   3.769   7.394 -2.3740  0.0766  2.1287
11623SOL    HW236064   2.592   3.681   7.288  1.1321  0.5734 -0.5591
11624SOL     OW36065   1.369   4.624   2.209  0.1011  0.2216  0.1915
11624SOL    HW136066   1.386   4.609   2.302  0.8680 -0.3782 -0.0366
11624SOL    HW236067   1.347   4.538   2.175  0.9439  0.2366 -0.4092
11625SOL     OW36068   0.335   8.413   5.217  0.3433 -0.7764  0.1800
11625SOL    HW136069   0.402   8.395   5.151  1.4056  3.3420 -0.1672
11625SOL    HW236070   0.253   8.418   5.168  0.6918 -0.4572 -0.3818
11626SOL     OW36071   7.572   3.717   2.401  0.1147  0.3965  0.0904
11626SOL    HW136072   7.644   3.773   2.431 -0.6398  1.7537 -0.5235
11626SOL    HW236073   7.558   3.742   2.310 -1.3817  0.4527  0.3037
11627SOL     OW36074   2.732   6.158   2.963  0.0742  0.1789 -0.1524
11627SOL    HW136075   2.712   6.071   2.928 -1.0302  0.2252  0.3280
11627SOL    HW236076   2.765   6.207   2.888  2.6739 -1.2255 -0.0336
11628SOL     OW36077   4.371   5.922   1.081 -0.1130 -0.0828 -0.1125
11628SOL    HW136078   4.293   5.972   1.104 -0.1951  0.4490 -1.4783
11628SOL    HW236079   4.401   5.960   0.999  1.1877 -0.7407  0.0274
11629SOL     OW36080   3.629   3.723   3.371 -0.2089 -0.2897 -0.1810
11629SOL    HW136081   3.626   3.666   3.293 -2.5835  0.6944 -0.8892
11629SOL    HW236082   3.568   3.794   3.351  0.4514  0.9414  1.8992
11630SOL     OW36083   3.411   8.209   3.841  0.3257  0.4940  0.6368
11630SOL    HW136084   3.364   8.132   3.871 -0.5402  0.9639  0.5128
11630SOL    HW236085   3.501   8.179   3.828 -0.6410 -1.4540 -2.8496
11631SOL     OW36086   5.983   1.453   7.693  0.0693 -0.1349  0.5642
11631SOL    HW136087   6.007   1.444   7.786 -0.5174  1.1149  0.8488
11631SOL    HW236088   6.047   1.399   7.647  1.4934  0.6345  1.5632
11632SOL     OW36089   2.046   0.769   3.246 -0.1674  0.2033  0.5589
11632SOL    HW136090   1.954   0.743   3.244 -0.2821  0.6010 -1.9779
11632SOL    HW236091   2.094   0.687   3.238 -0.3313  0.1405  0.2175
11633SOL     OW36092   6.446   2.980   4.258 -0.0503  0.3856  0.4384
11633SOL    HW136093   6.457   2.885   4.261  0.6766  0.4348 -0.1533
11633SOL    HW236094   6.525   3.015   4.300  0.2881  0.7285 -0.4547
11634SOL     OW36095   5.212   6.746   5.020 -0.4681 -0.3694  0.0466
11634SOL    HW136096   5.237   6.694   4.943  2.6161  0.4896  0.3560
11634SOL    HW236097   5.224   6.837   4.993 -1.6357  0.0551  0.8546
11635SOL     OW36098   8.052   4.433   0.247  0.8267  0.1624  0.3197
11635SOL    HW136099   8.065   4.457   0.155  0.4485  0.3330  0.3059
11635SOL    HW236100   8.085   4.508   0.296  0.0969  0.5169  0.2898
11636SOL     OW36101   6.571   7.783   1.901  0.0641  0.3900 -0.8443
11636SOL    HW136102   6.636   7.729   1.856 -0.6052  0.8451 -2.4279
11636SOL    HW236103   6.487   7.742   1.879 -0.4693  2.0772 -2.1934
11637SOL     OW36104   3.362   1.421   2.064 -0.0246  0.3357  0.3474
11637SOL    HW136105   3.313   1.484   2.117 -2.5917 -1.1209 -0.0864
11637SOL    HW236106   3.348   1.337   2.109  1.3050 -0.3064 -0.3723
11638SOL     OW36107   6.236   6.927   2.107  0.5171 -0.7323  0.0879
11638SOL    HW136108   6.247   6.904   2.200  1.5356 -2.5008 -0.4287
11638SOL    HW236109   6.152   6.888   2.082  1.6075 -2.8556 -0.4388
11639SOL     OW36110   6.694   4.480   3.566  0.4294 -0.2726 -0.0844
11639SOL    HW136111   6.632   4.552   3.568 -0.0191 -0.6700  1.4376
11639SOL    HW236112   6.644   4.405   3.533  0.4080 -0.3219  0.0607
11640SOL     OW36113   3.578   4.206   6.067 -0.2786 -0.0566  0.1379
11640SOL    HW136114   3.637   4.281   6.062 -1.2418  0.7629  0.6112
11640SOL    HW236115   3.609   4.155   6.141  0.9916 -0.6964 -0.7869
11641SOL     OW36116   8.492   6.580   5.282  0.6469 -0.3170 -0.6850
11641SOL    HW136117   8.478   6.647   5.349 -1.8284 -1.6475  0.2322
11641SOL    HW236118   8.443   6.611   5.206 -0.1652 -0.8640 -0.3943
11642SOL     OW36119   6.521   4.195   2.654 -0.0853  0.5417  0.0895
11642SOL    HW136120   6.590   4.142   2.693 -0.1681  2.5306  3.2914
11642SOL    HW236121   6.474   4.135   2.597  0.8790 -2.3545  2.1145
11643SOL     OW36122   7.341   1.564   0.888  0.8085  0.1288  0.0911
11643SOL    HW136123   7.276   1.556   0.958  1.3115  0.4537  0.6077
11643SOL    HW236124   7.300   1.622   0.824 -0.4785 -1.7453 -0.8762
11644SOL     OW36125   3.385   0.560   8.497 -0.4893 -0.1970 -0.3820
11644SOL    HW136126   3.474   0.526   8.498  0.2819  1.6568  1.3264
11644SOL    HW236127   3.394   0.648   8.460 -1.5639  0.1208  0.0791
11645SOL     OW36128   7.002   1.415   5.653  0.2749  0.7682 -0.2936
11645SOL    HW136129   7.060   1.487   5.676  1.6887  0.3336 -2.2309
11645SOL    HW236130   7.053   1.336   5.673 -0.3251  0.3408 -0.4257
11646SOL     OW36131   0.399   6.203   4.229 -0.0661 -0.1281  0.1329
11646SOL    HW136132   0.366   6.233   4.145 -0.4404  0.7452  0.5824
11646SOL    HW236133   0.380   6.274   4.290  2.4011  0.3091  0.4825
11647SOL     OW36134   5.169   1.622   6.533  0.0631 -0.0168  0.2341
11647SOL    HW136135   5.111   1.583   6.467  0.3493  1.3634 -0.8638
11647SOL    HW236136   5.110   1.649   6.604 -0.4992  0.3459 -0.3689
11648SOL     OW36137   6.986   0.799   8.355 -0.1408  0.0141 -0.3974
11648SOL    HW136138   6.999   0.790   8.449  1.4184  0.3096 -0.5627
11648SOL    HW236139   7.062   0.847   8.324 -0.6251 -0.0775 -1.8218
11649SOL     OW36140   5.142   0.276   5.140 -0.1023  1.0055 -0.6010
11649SOL    HW136141   5.203   0.320   5.200 -1.1003  0.7337  0.6468
11649SOL    HW236142   5.055   0.302   5.171 -0.7178 -1.2679 -0.2485
11650SOL     OW36143   4.884   7.593   0.234  0.0621 -0.0008  0.2093
11650SOL    HW136144   4.878   7.685   0.260  2.2650  0.0396  0.7230
11650SOL    HW236145   4.890   7.545   0.316 -1.0894 -0.6387 -0.0547
11651SOL     OW36146   6.514   3.869   0.328  0.2785  0.2068 -0.2471
11651SOL    HW136147   6.562   3.919   0.261  0.4347 -0.3994 -0.5996
11651SOL    HW236148   6.583   3.834   0.385  0.2437 -0.3952 -0.5640
11652SOL     OW36149   4.349   8.317   7.569 -0.2845  0.5140  0.3795
11652SOL    HW136150   4.440   8.344   7.576 -0.4239  0.8508  1.0007
11652SOL    HW236151   4.345   8.263   7.490  0.3753  0.7922  0.1555
11653SOL     OW36152   0.317   5.457   7.091 -0.1856  0.2451  0.1056
11653SOL    HW136153   0.246   5.396   7.077 -0.9836  1.5308 -1.7275
11653SOL    HW236154   0.394   5.401   7.107 -0.7660 -1.2563 -2.0111
11654SOL     OW36155   6.111   3.847   4.283 -0.3048 -0.5330  0.4569
11654SOL    HW136156   6.102   3.931   4.326  0.1014 -0.1463 -0.1921
11654SOL    HW236157   6.023   3.827   4.251 -0.2382  0.0552 -0.1158
11655SOL     OW36158   8.021   1.080   1.924 -0.3330  0.3467  0.0003
11655SOL    HW136159   7.998   1.138   1.851  1.5063  1.1855  0.0413
11655SOL    HW236160   7.966   1.110   1.997 -1.4222  0.1773 -0.7222
11656SOL     OW36161   3.629   4.446   5.523  0.4770 -0.1140 -0.0531
11656SOL    HW136162   3.705   4.394   5.548 -0.6123 -1.6748  0.1444
11656SOL    HW236163   3.555   4.402   5.565 -0.6339  0.9204 -0.8679
11657SOL     OW36164   4.568   7.466   6.996 -0.0608  0.2279  0.1000
11657SOL    HW136165   4.500   7.500   7.055 -0.5943  2.5550 -1.6992
11657SOL    HW236166   4.584   7.377   7.027 -1.3653  0.8256  2.7882
11658SOL     OW36167   4.843   4.921   4.564 -0.3241  0.4879 -0.5553
11658SOL    HW136168   4.938   4.917   4.571 -0.0825  2.0283 -2.2978
11658SOL    HW236169   4.821   5.012   4.585 -1.5957 -0.1935  1.2834
11659SOL     OW36170   8.296   6.110   8.393  0.3392  0.1017 -0.7804
11659SOL    HW136171   8.276   6.019   8.375 -0.8034  0.4659 -1.4865
11659SOL    HW236172   8.221   6.158   8.358  1.0650  1.3317 -0.7098
11660SOL     OW36173   4.286   2.104   8.062 -0.4083  0.1894 -0.6758
11660SOL    HW136174   4.221   2.174   8.073 -1.7091 -0.5359 -3.0478
11660SOL    HW236175   4.349   2.139   8.000  0.7866  0.3745  0.5820
11661SOL     OW36176   5.449   5.855   2.073  0.0069 -0.1486 -0.2147
11661SOL    HW136177   5.522   5.877   2.014  0.1496  1.5899  0.5567
11661SOL    HW236178   5.461   5.912   2.149 -0.4078 -2.0469  1.3520
11662SOL     OW36179   1.770   1.486   8.373 -0.0036  0.6254  0.3138
11662SOL    HW136180   1.864   1.476   8.354  0.0764 -0.8549  1.3138
11662SOL    HW236181   1.760   1.454   8.463 -1.4141  1.1456  0.3699
11663SOL     OW36182   5.336   4.391   2.932  0.2305 -0.2934 -0.3763
11663SOL    HW136183   5.428   4.406   2.910  0.7839 -0.6963  1.5210
11663SOL    HW236184   5.300   4.479   2.943 -0.0077 -0.0749 -2.4268
11664SOL     OW36185   7.839   0.200   0.501 -0.1086 -0.3308 -0.4209
11664SOL    HW136186   7.899   0.166   0.568 -1.6313  1.8263  2.2277
11664SOL    HW236187   7.896   0.242   0.437  1.3267  2.1333  2.2851
11665SOL     OW36188   5.328   4.095   5.782 -0.4000  0.0329  0.2596
11665SOL    HW136189   5.367   4.174   5.819 -0.2138 -0.1749  0.5157
11665SOL    HW236190   5.234   4.105   5.797 -0.2315 -0.6821  2.0986
11666SOL     OW36191   6.341   0.821   2.465  0.0096  0.7001 -0.2131
11666SOL    HW136192   6.300   0.770   2.535  0.2737 -0.6319 -0.9791
11666SOL    HW236193   6.397   0.884   2.511 -0.5426  0.4899  0.7787
11667SOL     OW36194   8.232   5.182   7.088 -0.6297 -0.3353  0.1695
11667SOL    HW136195   8.201   5.105   7.041 -0.3754 -0.3987  0.1073
11667SOL    HW236196   8.213   5.255   7.029 -1.5254 -0.2657  0.5255
11668SOL     OW36197   1.146   7.847   5.222 -0.6963 -0.1437  0.0186
11668SOL    HW136198   1.061   7.869   5.259 -1.6713  0.3494 -2.3478
11668SOL    HW236199   1.167   7.920   5.164  1.0152 -0.6091 -0.0050
11669SOL     OW36200   0.560   5.971   5.459  0.6449 -0.2193  0.9552
11669SOL    HW136201   0.603   5.907   5.402  1.1771  1.1340 -0.2276
11669SOL    HW236202   0.617   6.047   5.457 -0.5264  0.7019  1.4383
11670SOL     OW36203   7.474   4.443   7.345  0.4816  0.3316  0.1147
11670SOL    HW136204   7.419   4.364   7.343  0.4982  0.3366 -1.3639
11670SOL    HW236205   7.516   4.445   7.260  0.7232  1.7882  0.2519
11671SOL     OW36206   3.594   8.129   4.987  0.1892  0.0795 -0.4229
11671SOL    HW136207   3.575   8.074   5.063  0.9194 -1.6164 -1.4047
11671SOL    HW236208   3.524   8.193   4.986 -0.0774 -0.1125  1.4258
11672SOL     OW36209   4.701   5.711   4.862 -0.0011  0.4009  0.4367
11672SOL    HW136210   4.751   5.778   4.817  1.9890  0.7765  2.9907
11672SOL    HW236211   4.703   5.635   4.803 -1.3414  2.1174 -1.9977
11673SOL     OW36212   5.657   2.391   3.358  0.3298 -0.0780  0.6887
11673SOL    HW136213   5.622   2.312   3.317 -0.7828  1.5100 -1.6507
11673SOL    HW236214   5.579   2.434   3.395  0.4656  1.2096 -0.4562
11674SOL     OW36215   3.951   1.589   4.469 -0.0851 -0.6851 -0.1812
11674SOL    HW136216   4.013   1.550   4.530  0.3099 -1.0312 -0.7937
11674SOL    HW236217   4.005   1.633   4.404 -0.4977 -0.4233 -0.3565
11675SOL     OW36218   3.574   0.463   5.385 -0.2890  0.0053  0.2442
11675SOL    HW136219   3.646   0.512   5.345 -1.3824  1.1742 -0.3750
11675SOL    HW236220   3.612   0.423   5.463  1.1640  0.1139 -0.3791
11676SOL     OW36221   8.550   5.866   4.873 -0.2921 -0.5313 -0.0260
11676SOL    HW136222   8.610   5.892   4.944  2.4979  2.7120 -3.1916
11676SOL    HW236223   8.486   5.937   4.870  0.2617 -0.0737 -1.3745
11677SOL     OW36224   0.568   3.785   2.864  0.2423 -0.4381  0.7809
11677SOL    HW136225   0.577   3.876   2.893 -1.6170  0.4558 -1.1255
11677SOL    HW236226   0.522   3.741   2.936 -1.8950  1.0366  0.4215
11678SOL     OW36227   8.441   7.696   7.153 -0.5659  0.0250 -0.5349
11678SOL    HW136228   8.425   7.763   7.086 -1.1454 -0.8441 -1.2944
11678SOL    HW236229   8.429   7.613   7.107  0.8929 -0.6301  0.2000
11679SOL     OW36230   6.216   3.103   5.397  0.5625 -0.0292  0.2592
11679SOL    HW136231   6.198   3.129   5.487  1.5801  1.1211  0.1691
11679SOL    HW236232   6.312   3.103   5.391  0.5106  0.4367 -0.9576
11680SOL     OW36233   3.964   8.312   2.903 -0.3267  0.4613  0.2167
11680SOL    HW136234   3.892   8.256   2.932  0.0563  0.0961  0.4756
11680SOL    HW236235   4.017   8.327   2.981 -0.3066  1.0127  0.1039
11681SOL     OW36236   8.199   6.794   6.522 -0.4425 -0.6918  0.2150
11681SOL    HW136237   8.290   6.817   6.507 -1.0754  1.1282 -1.1594
11681SOL    HW236238   8.176   6.737   6.448 -0.5207 -0.8370  0.3506
11682SOL     OW36239   6.563   6.779   1.473  0.5246  0.0943 -0.3522
11682SOL    HW136240   6.572   6.736   1.558  0.1997 -0.4626 -0.5892
11682SOL    HW236241   6.470   6.802   1.468  0.9236  2.1153  0.3605
11683SOL     OW36242   7.086   8.476   3.263  0.2145  0.2082  0.9059
11683SOL    HW136243   7.063   8.567   3.244  1.2018  0.4851  0.9652
11683SOL    HW236244   7.002   8.429   3.262 -0.2742  1.0634  0.6015
11684SOL     OW36245   6.766   1.956   7.295  0.2269  0.8183  0.2317
11684SOL    HW136246   6.793   1.904   7.370 -1.3925 -0.7628 -0.2046
11684SOL    HW236247   6.825   2.032   7.296  3.0204 -1.1970  0.6319
11685SOL     OW36248   7.337   1.410   6.039  0.4844  0.2211  0.5914
11685SOL    HW136249   7.385   1.456   6.108  0.6051 -0.9246  1.2913
11685SOL    HW236250   7.404   1.380   5.978  0.2931  2.2763 -0.7265
11686SOL     OW36251   2.039   3.176   6.506 -0.3111  0.1024  0.2438
11686SOL    HW136252   2.052   3.102   6.565 -0.5366  0.0068  0.1739
11686SOL    HW236253   1.991   3.140   6.431  0.1732  0.1730 -0.1033
11687SOL     OW36254   3.515   3.382   5.306  0.1064  0.8675 -0.9539
11687SOL    HW136255   3.511   3.303   5.251 -0.0084  0.6369 -0.6184
11687SOL    HW236256   3.608   3.392   5.327  0.0876  0.6425 -0.7488
11688SOL     OW36257   8.436   1.539   2.185 -0.2621  0.1059 -0.1605
11688SOL    HW136258   8.431   1.570   2.095  0.1164 -0.0443 -0.2375
11688SOL    HW236259   8.500   1.468   2.182 -1.0533 -0.6313  0.0299
11689SOL     OW36260   7.926   7.681   1.715  0.4718  0.4020 -0.1210
11689SOL    HW136261   7.958   7.603   1.669  1.9653  1.1421 -0.3982
11689SOL    HW236262   7.960   7.671   1.804 -1.8946 -0.7236  0.7462
11690SOL     OW36263   0.446   6.088   6.007 -0.1968 -0.1903  0.0629
11690SOL    HW136264   0.481   5.998   6.006  1.6417  0.4738 -1.2651
11690SOL    HW236265   0.459   6.117   6.097  2.8047 -0.0338 -0.2995
11691SOL     OW36266   3.739   4.418   6.315 -0.0387  0.1410 -0.3344
11691SOL    HW136267   3.777   4.333   6.334 -0.5300  0.0066  0.0853
11691SOL    HW236268   3.704   4.410   6.227  1.0500  0.3251 -0.8030
11692SOL     OW36269   1.661   6.880   4.123  0.5302  0.0096  0.2650
11692SOL    HW136270   1.639   6.797   4.164  0.0085  0.1630  0.2988
11692SOL    HW236271   1.675   6.940   4.196 -1.0307  0.4473  0.2304
11693SOL     OW36272   2.198   8.437   5.331 -0.6695 -0.0663  0.0763
11693SOL    HW136273   2.272   8.388   5.367 -1.4011 -2.7507 -1.6932
11693SOL    HW236274   2.124   8.414   5.387 -0.7816  0.0120 -0.0391
11694SOL     OW36275   2.642   3.830   6.870  0.0188  0.1130 -0.2132
11694SOL    HW136276   2.621   3.738   6.886 -3.0628  0.9365  1.1540
11694SOL    HW236277   2.647   3.870   6.957  1.3616  1.2869 -0.7772
11695SOL     OW36278   2.182   6.089   7.690 -0.2853 -0.0977 -0.5455
11695SOL    HW136279   2.112   6.151   7.671  0.0246 -0.3914 -2.9105
11695SOL    HW236280   2.153   6.007   7.649  1.4223 -0.2014 -1.6445
11696SOL     OW36281   2.115   5.696   7.098  0.1094 -0.5462 -0.4264
11696SOL    HW136282   2.033   5.700   7.147  0.2247  0.0410 -0.2765
11696SOL    HW236283   2.148   5.786   7.098  1.6474 -1.0545  1.0504
11697SOL     OW36284   6.101   4.228   7.105  0.3076 -0.0033  0.0642
11697SOL    HW136285   6.025   4.213   7.049  0.8712  1.4338 -1.1510
11697SOL    HW236286   6.165   4.163   7.075  0.4188  0.4123 -0.6402
11698SOL     OW36287   6.823   5.484   5.860 -0.2610 -0.0377  0.6565
11698SOL    HW136288   6.791   5.461   5.773  1.1296 -0.4871  0.2397
11698SOL    HW236289   6.765   5.437   5.920 -1.5135  0.6341  0.0149
11699SOL     OW36290   2.366   6.635   8.184 -0.3555  0.0294 -0.1101
11699SOL    HW136291   2.308   6.705   8.213  1.2021  1.5422 -0.4711
11699SOL    HW236292   2.389   6.589   8.265  1.9346  2.6380  0.8884
11700SOL     OW36293   7.399   4.865   6.596  0.3946  0.7881 -0.2285
11700SOL    HW136294   7.493   4.857   6.581 -0.0150 -0.5410 -2.3386
11700SOL    HW236295   7.374   4.945   6.550  0.3799  0.7978 -0.2038
11701SOL     OW36296   1.213   2.064   1.837  0.1739  0.1971 -0.7344
11701SOL    HW136297   1.147   2.119   1.880  0.1096  0.2494 -0.8975
11701SOL    HW236298   1.201   1.977   1.876  1.4908  0.6794  0.8660
11702SOL     OW36299   0.227   3.336   0.147  0.3205 -0.0202  0.2737
11702SOL    HW136300   0.279   3.268   0.189  1.6567 -0.9441 -2.6188
11702SOL    HW236301   0.291   3.392   0.103 -0.9483  1.1939 -0.1092
11703SOL     OW36302   3.622   3.105   7.819 -0.1236  0.3506  0.0131
11703SOL    HW136303   3.693   3.109   7.882 -0.8475  1.2606  0.7927
11703SOL    HW236304   3.643   3.172   7.754  2.4947 -2.8540 -2.8513
11704SOL     OW36305   1.737   1.692   2.890  0.2161  0.2496  0.2949
11704SOL    HW136306   1.753   1.714   2.798 -2.9272 -0.7327 -0.6123
11704SOL    HW236307   1.685   1.765   2.923  0.5538  0.1650  1.0244
11705SOL     OW36308   6.836   8.552   6.156 -0.6932 -0.3127  0.2504
11705SOL    HW136309   6.828   8.457   6.164 -2.1878 -0.0720  2.3843
11705SOL    HW236310   6.907   8.574   6.216  0.0460 -0.1041 -0.6774
11706SOL     OW36311   1.066   5.912   3.068  0.2087 -0.1486 -0.7238
11706SOL    HW136312   0.974   5.899   3.093  0.6616 -3.0593 -0.1931
11706SOL    HW236313   1.094   5.987   3.120 -1.2845 -0.6336  0.9124
11707SOL     OW36314   6.262   5.063   4.786 -0.2915 -0.9274 -0.1430
11707SOL    HW136315   6.340   5.112   4.812  1.0242 -3.2291  0.4992
11707SOL    HW236316   6.213   5.124   4.732  2.7841  0.1459 -2.0027
11708SOL     OW36317   2.739   4.067   7.594 -0.1990  0.3452 -0.3862
11708SOL    HW136318   2.655   4.110   7.607 -0.0218  0.5814 -0.0066
11708SOL    HW236319   2.733   3.987   7.647 -0.4481  0.0000 -0.9242
11709SOL     OW36320   1.607   1.310   0.431  0.1928 -0.0020  0.1514
11709SOL    HW136321   1.699   1.323   0.407  0.0161  1.5364  0.1641
11709SOL    HW236322   1.575   1.244   0.370  1.3567 -0.7560  0.3155
11710SOL     OW36323   3.711   7.826   3.159 -0.6728  0.1824 -0.2987
11710SOL    HW136324   3.689   7.781   3.078 -0.1856  2.2778 -1.6732
11710SOL    HW236325   3.801   7.801   3.178 -1.1332 -1.1639  0.2493
11711SOL     OW36326   5.302   5.648   4.293  0.3271 -0.0819 -0.0981
11711SOL    HW136327   5.393   5.624   4.305 -0.2092 -2.2599 -0.0417
11711SOL    HW236328   5.254   5.600   4.361 -0.9971 -0.0217 -0.9407
11712SOL     OW36329   5.415   4.886   0.248  0.4374 -0.1358  0.3418
11712SOL    HW136330   5.383   4.975   0.265  2.4737  0.8229 -0.5370
11712SOL    HW236331   5.367   4.857   0.171 -1.6726 -0.6216  1.7735
11713SOL     OW36332   2.200   7.241   5.661  0.5581  0.5586 -0.2831
11713SOL    HW136333   2.248   7.281   5.733 -0.3810  2.1826 -0.5116
11713SOL    HW236334   2.194   7.148   5.684  2.7792  0.5057  0.2828
11714SOL     OW36335   6.540   1.282   7.290 -0.3286  0.4646 -0.0493
11714SOL    HW136336   6.479   1.277   7.216  0.1971  3.7398 -0.8588
11714SOL    HW236337   6.488   1.322   7.361 -1.2215 -3.7705  2.0453
11715SOL     OW36338   1.043   3.796   1.476  0.3553  0.1226  0.1616
11715SOL    HW136339   1.062   3.717   1.526 -0.6415  0.1156  0.5487
11715SOL    HW236340   0.952   3.786   1.448  0.2473  1.0815  0.1339
11716SOL     OW36341   4.098   7.012   2.191 -0.3797  0.1071  0.3795
11716SOL    HW136342   4.173   6.996   2.248  0.8189  0.6800 -0.9563
11716SOL    HW236343   4.100   6.941   2.127  1.4592  2.1370 -2.0280
11717SOL     OW36344   2.985   2.744   5.344 -0.9403 -0.8505  0.0136
11717SOL    HW136345   2.969   2.820   5.400 -0.5311  0.1501 -1.1709
11717SOL    HW236346   2.902   2.697   5.343 -0.9532 -0.9031  1.4458
11718SOL     OW36347   7.846   4.437   6.406 -0.1812  0.5056  0.4289
11718SOL    HW136348   7.914   4.461   6.342 -0.6049 -0.1957 -0.3062
11718SOL    HW236349   7.845   4.510   6.468  4.2521 -1.2699  3.0621
11719SOL     OW36350   1.922   2.024   7.519 -0.8046  0.0394 -0.1940
11719SOL    HW136351   1.844   2.041   7.571 -0.6271  1.1859 -0.2602
11719SOL    HW236352   1.995   2.045   7.577 -0.4264 -2.9973  0.5636
11720SOL     OW36353   8.317   7.275   4.672  0.0681 -0.2740  0.1231
11720SOL    HW136354   8.282   7.198   4.716  0.7009 -0.3820  0.4553
11720SOL    HW236355   8.327   7.340   4.741  0.0967 -0.0974 -0.0461
11721SOL     OW36356   5.211   0.569   0.169  0.3119 -0.4069  1.0309
11721SOL    HW136357   5.138   0.625   0.196  1.5986  1.8238  0.2005
11721SOL    HW236358   5.179   0.524   0.091 -0.4339  0.0199  1.0792
11722SOL     OW36359   2.541   2.851   0.597  0.0585  0.1177  0.0637
11722SOL    HW136360   2.459   2.899   0.585 -0.7193 -1.2117 -0.1187
11722SOL    HW236361   2.571   2.832   0.508 -0.3346 -0.8655  0.1322
11723SOL     OW36362   2.011   1.794   4.086 -0.5602 -0.4492 -0.3398
11723SOL    HW136363   2.058   1.817   4.006 -1.8763  0.3847 -0.9044
11723SOL    HW236364   2.079   1.779   4.151  0.5634 -1.4766 -1.6889
11724SOL     OW36365   2.350   4.134   8.080  0.2126 -0.1286 -0.2362
11724SOL    HW136366   2.292   4.070   8.038 -0.3156  0.9889 -1.2805
11724SOL    HW236367   2.435   4.119   8.040  0.1361 -0.2948 -0.3388
11725SOL     OW36368   4.957   4.435   1.581 -0.2117  0.5244  0.2743
11725SOL    HW136369   4.933   4.502   1.645 -1.0094  0.7255 -0.2224
11725SOL    HW236370   4.898   4.362   1.599  0.6287 -0.0410  0.7856
11726SOL     OW36371   2.616   5.695   2.671  0.1910  0.3619  0.4418
11726SOL    HW136372   2.665   5.734   2.743 -0.6750  1.6052  0.4156
11726SOL    HW236373   2.542   5.755   2.659  0.5124  0.4068 -1.7198
11727SOL     OW36374   4.342   4.901   3.669 -0.3399 -0.1024  0.0687
11727SOL    HW136375   4.321   4.884   3.578 -0.5448 -0.5309  0.1940
11727SOL    HW236376   4.405   4.973   3.667  0.1551 -0.5445 -0.4393
11728SOL     OW36377   7.902   5.521   1.978  0.1341  0.2654  0.6162
11728SOL    HW136378   7.836   5.453   1.993 -0.3699  0.0088 -2.1216
11728SOL    HW236379   7.970   5.504   2.043 -1.0909 -1.3720  1.5496
11729SOL     OW36380   5.865   5.204   5.427  0.9060 -0.0159 -0.2977
11729SOL    HW136381   5.823   5.290   5.438 -0.6193 -0.9136  1.6847
11729SOL    HW236382   5.931   5.218   5.359 -0.1517  2.3985 -0.9568
11730SOL     OW36383   0.557   6.921   6.889  0.0070 -0.0492 -0.4862
11730SOL    HW136384   0.605   6.854   6.840 -0.1861  0.2235 -1.0586
11730SOL    HW236385   0.624   6.972   6.933  0.1976 -0.1711 -0.6351
11731SOL     OW36386   6.887   6.781   6.522 -0.3821  0.1530 -1.1094
11731SOL    HW136387   6.944   6.857   6.514 -0.7080  0.7964  1.5714
11731SOL    HW236388   6.828   6.803   6.594 -1.2996 -2.1584 -1.0513
11732SOL     OW36389   0.440   1.995   0.245  0.7897  0.5076  0.2649
11732SOL    HW136390   0.496   1.926   0.281 -0.2296 -0.2717  0.3776
11732SOL    HW236391   0.389   1.952   0.177 -0.2782  0.9932  0.7339
11733SOL     OW36392   5.447   1.761   5.174 -0.1248  0.1905  0.0201
11733SOL    HW136393   5.396   1.681   5.170 -0.2399  0.0675  2.6811
11733SOL    HW236394   5.453   1.790   5.083 -1.2600 -2.0646 -0.8356
11734SOL     OW36395   1.565   0.959   7.049 -0.0111 -0.1997 -0.5066
11734SOL    HW136396   1.563   1.054   7.037 -1.7749  0.0206  1.1251
11734SOL    HW236397   1.479   0.937   7.083  0.4298 -2.3767 -0.6725
11735SOL     OW36398   0.639   1.010   2.670 -0.1815  0.2558 -0.1357
11735SOL    HW136399   0.684   0.968   2.597  0.1896  0.1556  0.1481
11735SOL    HW236400   0.546   0.995   2.652 -0.1255  0.7586 -0.9057
11736SOL     OW36401   3.810   3.081   0.723 -0.2072  0.2388  0.1159
11736SOL    HW136402   3.723   3.097   0.761 -0.3174  0.2816 -0.1570
11736SOL    HW236403   3.792   3.048   0.635  0.0707  1.4631 -0.4245
11737SOL     OW36404   2.946   1.467   5.404 -0.0037  0.4643 -0.0125
11737SOL    HW136405   2.912   1.402   5.465  0.5362 -0.3475 -0.5450
11737SOL    HW236406   2.915   1.551   5.437 -0.1286 -0.0058  1.0881
11738SOL     OW36407   6.558   1.679   2.826 -0.2011 -0.0349  0.7009
11738SOL    HW136408   6.637   1.733   2.817 -1.3957  1.7672  0.5020
11738SOL    HW236409   6.560   1.621   2.750 -0.6800  2.2247 -1.1215
11739SOL     OW36410   4.211   2.515   5.112  0.3315 -0.2869  0.3471
11739SOL    HW136411   4.268   2.539   5.185 -0.0582  0.2331  0.4782
11739SOL    HW236412   4.235   2.577   5.042 -1.8756  1.7189  1.2353
11740SOL     OW36413   6.109   3.621   4.057 -0.1633 -0.3696  0.3435
11740SOL    HW136414   6.033   3.664   4.098  0.1682  0.1574  0.4156
11740SOL    HW236415   6.135   3.554   4.119 -1.1409 -1.1943 -0.0978
11741SOL     OW36416   6.780   4.982   6.521 -0.1178 -0.3202 -0.1322
11741SOL    HW136417   6.865   4.965   6.560 -0.0532 -0.5963 -0.3954
11741SOL    HW236418   6.718   4.939   6.580 -0.0976  0.0714  0.1821
11742SOL     OW36419   7.370   4.263   8.302  0.6138 -0.0115  0.0867
11742SOL    HW136420   7.406   4.344   8.338 -0.7238  1.3514 -1.4581
11742SOL    HW236421   7.319   4.225   8.374  1.0022  0.6788  0.7425
11743SOL     OW36422   0.904   5.154   5.576  0.3177  0.0494  0.2827
11743SOL    HW136423   0.974   5.160   5.641  0.1098 -0.3700  0.5458
11743SOL    HW236424   0.934   5.089   5.513  0.8353  0.9648 -0.4395
11744SOL     OW36425   5.172   2.410   7.294  0.0974  0.5688  0.0382
11744SOL    HW136426   5.174   2.351   7.369 -1.5847  0.2217 -0.1501
11744SOL    HW236427   5.098   2.469   7.312  1.4404  2.3487 -0.0054
11745SOL     OW36428   1.358   5.409   1.040 -0.0063  0.7737 -0.1209
11745SOL    HW136429   1.289   5.470   1.067 -0.1242  0.2224  0.8731
11745SOL    HW236430   1.325   5.323   1.066  1.4344  0.5817  1.2391
11746SOL     OW36431   2.789   5.106   3.657  0.1135 -0.0234  0.0897
11746SOL    HW136432   2.821   5.138   3.573 -0.8421 -1.6271 -0.9247
11746SOL    HW236433   2.701   5.074   3.640 -0.2901  0.0344  1.8136
11747SOL     OW36434   5.031   1.242   5.647 -0.3199  0.2332  0.4257
11747SOL    HW136435   5.081   1.218   5.725 -0.6115 -0.1807  0.4900
11747SOL    HW236436   5.096   1.249   5.578 -0.3435 -2.1571  0.0682
11748SOL     OW36437   5.360   6.685   4.480  0.5088 -0.0343  0.1939
11748SOL    HW136438   5.289   6.742   4.451  0.2152 -0.4941 -0.0098
11748SOL    HW236439   5.395   6.646   4.399  0.8564  0.0336  0.3097
11749SOL     OW36440   6.276   0.524   6.772 -0.1475  0.6706  0.4906
11749SOL    HW136441   6.190   0.540   6.810 -0.5157  0.0566 -0.0625
11749SOL    HW236442   6.260   0.516   6.678  0.7699  2.3626  0.1482
11750SOL     OW36443   5.734   6.191   7.258 -0.1357  0.7593  0.7439
11750SOL    HW136444   5.822   6.173   7.225 -0.0794 -1.1141  1.7972
11750SOL    HW236445   5.749   6.242   7.338  0.0783 -0.4767  1.5157
11751SOL     OW36446   8.318   6.053   2.134  0.1787 -0.3999  0.6867
11751SOL    HW136447   8.385   6.010   2.081 -0.5622 -0.0911 -0.5381
11751SOL    HW236448   8.268   6.106   2.072 -1.2201 -0.6412  1.5491
11752SOL     OW36449   1.235   1.641   3.805 -0.2513  0.7394 -0.0285
11752SOL    HW136450   1.241   1.598   3.890 -0.1924  1.9845  0.6236
11752SOL    HW236451   1.314   1.696   3.801  0.5509 -0.4253 -1.5596
11753SOL     OW36452   6.916   3.925   0.551 -0.7061  0.4661  0.7770
11753SOL    HW136453   6.931   3.986   0.478  0.2198 -1.0536 -0.3430
11753SOL    HW236454   6.992   3.937   0.607 -0.8378  0.7825  0.8932
11754SOL     OW36455   3.067   3.075   3.076  0.4920 -0.2565 -0.3972
11754SOL    HW136456   2.998   3.031   3.026  0.9084 -0.6497 -0.6405
11754SOL    HW236457   3.135   3.008   3.086 -0.3833 -0.8686  2.4417
11755SOL     OW36458   4.481   2.046   4.242 -0.2046  0.1071 -0.3310
11755SOL    HW136459   4.514   2.131   4.214  1.6643 -0.6507 -0.5414
11755SOL    HW236460   4.558   2.000   4.277 -1.3758 -1.0990  0.7935
11756SOL     OW36461   6.509   4.242   3.775 -0.0009  0.1485  0.4026
11756SOL    HW136462   6.475   4.323   3.814 -1.3382  0.9226 -2.1708
11756SOL    HW236463   6.528   4.265   3.684  1.0994 -2.0515  0.0044
11757SOL     OW36464   3.930   0.143   5.215 -0.2539  0.1085 -0.2241
11757SOL    HW136465   3.925   0.236   5.236 -1.1018 -0.5139  2.7724
11757SOL    HW236466   3.840   0.112   5.220 -0.0099 -0.8766 -1.3947
11758SOL     OW36467   7.727   4.171   6.077  0.2227 -0.5596 -0.0014
11758SOL    HW136468   7.684   4.255   6.095 -0.8533 -0.9126 -0.7981
11758SOL    HW236469   7.736   4.170   5.981  0.6088 -1.1780  0.0403
11759SOL     OW36470   4.123   0.495   4.438  0.1335  0.0020 -0.5889
11759SOL    HW136471   4.047   0.444   4.469 -0.1229  0.4296 -0.5083
11759SOL    HW236472   4.168   0.521   4.518  1.8412 -2.4134 -0.6607
11760SOL     OW36473   2.786   5.897   6.946  0.7778  0.3701  0.2835
11760SOL    HW136474   2.854   5.839   6.913 -0.8735 -0.2012 -2.4108
11760SOL    HW236475   2.768   5.957   6.874 -2.1073 -0.0206  0.5360
11761SOL     OW36476   0.246   6.789   3.650 -0.1186  0.2928  0.2559
11761SOL    HW136477   0.205   6.773   3.735 -0.8926 -0.2318 -0.2002
11761SOL    HW236478   0.202   6.728   3.590  1.9966 -1.0316 -0.0797
11762SOL     OW36479   7.579   7.842   1.003 -0.1247  0.3860  0.1390
11762SOL    HW136480   7.561   7.833   0.910  0.1523 -2.4186  0.2790
11762SOL    HW236481   7.549   7.931   1.025 -5.4324 -0.6702 -1.4205
11763SOL     OW36482   2.784   4.986   3.166 -0.0347  0.2510  0.7916
11763SOL    HW136483   2.874   4.954   3.159  0.6793  2.3032 -0.4960
11763SOL    HW236484   2.751   4.948   3.248  2.9054  1.4402  2.7296
11764SOL     OW36485   8.119   3.531   1.261 -0.1805 -0.0394 -0.2207
11764SOL    HW136486   8.049   3.493   1.314  0.0049  0.1238  0.1501
11764SOL    HW236487   8.084   3.616   1.233  1.1448  1.7558  2.9843
11765SOL     OW36488   2.709   6.325   1.991  1.2165 -0.1383  0.6468
11765SOL    HW136489   2.792   6.373   1.993  1.4341 -0.4487 -0.2879
11765SOL    HW236490   2.730   6.238   2.026  1.7062 -0.7979 -1.1923
11766SOL     OW36491   6.019   4.979   0.003 -0.2505 -0.3030  0.4296
11766SOL    HW136492   5.935   5.023  -0.011 -0.0129 -0.0084 -0.1172
11766SOL    HW236493   6.015   4.901  -0.053  0.1451  0.1278 -0.2111
11767SOL     OW36494   6.226   2.441   5.495 -0.5115 -0.0181 -0.0534
11767SOL    HW136495   6.169   2.367   5.473 -1.0177  0.6655 -1.1321
11767SOL    HW236496   6.169   2.518   5.486 -0.1500  0.4766  1.6074
11768SOL     OW36497   3.111   5.939   0.754  0.0508  0.2561 -0.0712
11768SOL    HW136498   3.153   6.013   0.710  3.4585 -1.8958 -0.8779
11768SOL    HW236499   3.161   5.928   0.835  0.0105 -1.3977 -0.2299
11769SOL     OW36500   0.892   2.728   6.156 -0.0352  0.1759 -0.2379
11769SOL    HW136501   0.952   2.763   6.223 -1.4500  0.4425  0.9308
11769SOL    HW236502   0.805   2.748   6.189 -0.8089 -1.0061 -1.4737
11770SOL     OW36503   0.873   3.867   3.358  0.1289 -0.3757  0.0531
11770SOL    HW136504   0.826   3.950   3.352 -1.9042 -1.4249  0.4866
11770SOL    HW236505   0.944   3.874   3.295 -1.1059  0.9992 -1.2342
11771SOL     OW36506   1.496   0.286   6.384  0.4750 -0.2293  0.2503
11771SOL    HW136507   1.440   0.240   6.322  1.3949 -0.6762 -0.2605
11771SOL    HW236508   1.490   0.378   6.358  0.5983 -0.3734 -0.2941
11772SOL     OW36509   1.779   0.054   1.562 -0.2349  0.5617 -0.0975
11772SOL    HW136510   1.812   0.143   1.571 -1.2374  0.8067  1.7167
11772SOL    HW236511   1.693   0.056   1.604  0.3062 -1.5537  1.3245
11773SOL     OW36512   7.695   2.131   4.556 -0.0371  0.3625  0.3358
11773SOL    HW136513   7.663   2.212   4.517  0.9566  0.8946  0.5827
11773SOL    HW236514   7.715   2.154   4.646  2.4928  0.5087 -0.1886
11774SOL     OW36515   6.378   7.464   3.135 -0.0526  0.0017 -0.2207
11774SOL    HW136516   6.398   7.373   3.116 -0.0299 -0.0547  0.0673
11774SOL    HW236517   6.316   7.490   3.067  0.3188 -0.0797 -0.5957
11775SOL     OW36518   4.495   0.803   1.705  0.3179 -0.0934 -0.6204
11775SOL    HW136519   4.493   0.768   1.616  0.0371  0.4895 -0.8529
11775SOL    HW236520   4.412   0.850   1.714 -0.1960 -1.1454  0.3776
11776SOL     OW36521   5.616   3.448   8.421  0.4357  0.1493  0.1457
11776SOL    HW136522   5.702   3.406   8.423  0.9450  1.1805  0.1801
11776SOL    HW236523   5.586   3.437   8.330 -0.4981 -2.3289  0.6614
11777SOL     OW36524   2.684   5.684   5.449  0.3564  0.3593  0.4244
11777SOL    HW136525   2.615   5.739   5.488  0.7163  1.7290 -0.8086
11777SOL    HW236526   2.662   5.680   5.356  1.9188  0.7978  0.0155
11778SOL     OW36527   2.157   4.456   6.482  0.3483 -0.5021 -0.1406
11778SOL    HW136528   2.189   4.542   6.454  0.1421  0.4957  2.4362
11778SOL    HW236529   2.231   4.417   6.528  0.7376 -2.1547 -2.0572
11779SOL     OW36530   2.895   0.018   1.662  0.2867 -0.1036 -0.2389
11779SOL    HW136531   2.977  -0.010   1.703  0.4234 -1.2825 -1.2267
11779SOL    HW236532   2.827  -0.027   1.712  0.2826  0.3249  0.1474
11780SOL     OW36533   6.239   5.194   5.684 -0.0235  0.1054 -0.4458
11780SOL    HW136534   6.153   5.154   5.670 -0.2095  0.0515  0.7492
11780SOL    HW236535   6.233   5.279   5.641 -0.1878 -0.4510 -1.5687
11781SOL     OW36536   4.057   1.199   1.581  0.0701  0.1310 -0.2407
11781SOL    HW136537   4.031   1.290   1.593  0.6124  0.5153 -1.7871
11781SOL    HW236538   3.974   1.151   1.578 -0.3025  0.8076 -1.1579
11782SOL     OW36539   6.344   4.807   0.617 -0.4607  0.0853 -0.1523
11782SOL    HW136540   6.406   4.733   0.617 -0.7205 -0.1922 -1.8742
11782SOL    HW236541   6.333   4.830   0.709  1.4400 -0.5055  0.2646
11783SOL     OW36542   4.092   5.530   5.617  0.0015 -0.5489  0.1026
11783SOL    HW136543   4.061   5.448   5.656  0.4411 -1.1122 -0.6902
11783SOL    HW236544   4.049   5.533   5.531  0.3939 -0.2113 -0.0874
11784SOL     OW36545   5.773   4.821   7.671  0.3861 -0.0226 -0.6037
11784SOL    HW136546   5.732   4.797   7.588  0.1668  0.5274 -0.6589
11784SOL    HW236547   5.867   4.819   7.652  0.3296  2.6048 -1.6290
11785SOL     OW36548   1.512   4.183   6.144 -0.0370 -0.2628 -0.2346
11785SOL    HW136549   1.470   4.250   6.090  0.6830  0.1958 -0.2477
11785SOL    HW236550   1.564   4.132   6.082 -1.1718 -1.3216 -0.3379
11786SOL     OW36551   2.164   3.016   4.434 -0.1193 -0.0081  0.1295
11786SOL    HW136552   2.072   2.994   4.445 -0.5285  0.3567 -2.1401
11786SOL    HW236553   2.199   2.949   4.376 -0.0674  2.1335 -2.5007
11787SOL     OW36554   8.100   4.654   6.726  0.0104  0.1833 -0.5307
11787SOL    HW136555   8.167   4.693   6.670  1.2197  1.2704  1.5212
11787SOL    HW236556   8.064   4.728   6.774  0.2177 -0.8296  1.2972
11788SOL     OW36557   7.068   4.173   6.040  0.0327  0.1361  0.0543
11788SOL    HW136558   7.161   4.195   6.037  0.2463 -0.6629  0.5805
11788SOL    HW236559   7.057   4.126   6.123 -0.7597 -0.1315 -0.1941
11789SOL     OW36560   0.826   1.923   6.718  0.0446 -1.0644  0.0518
11789SOL    HW136561   0.918   1.903   6.735  0.6084  0.6968 -0.7137
11789SOL    HW236562   0.792   1.952   6.802  0.4332 -0.8327  0.1285
11790SOL     OW36563   6.842   1.342   5.436 -0.6866 -0.2555  0.1292
11790SOL    HW136564   6.832   1.247   5.439 -3.0011 -0.0457  2.9300
11790SOL    HW236565   6.900   1.363   5.509  1.3582  0.4523 -1.5813
11791SOL     OW36566   3.266   0.223   6.533  0.4202 -0.6369 -0.0658
11791SOL    HW136567   3.307   0.291   6.587 -0.1938  0.5026 -0.9651
11791SOL    HW236568   3.335   0.195   6.474  0.3901  0.0569 -0.4489
11792SOL     OW36569   8.508   4.508   2.407  0.3481  0.6943  0.1408
11792SOL    HW136570   8.433   4.520   2.466 -0.8429 -1.2259 -0.9044
11792SOL    HW236571   8.498   4.576   2.341 -1.4176 -0.4679 -0.8647
11793SOL     OW36572   2.771   5.345   2.718 -0.5681  0.6917  0.0383
11793SOL    HW136573   2.813   5.271   2.761  1.4066  0.9544 -1.2940
11793SOL    HW236574   2.801   5.422   2.766 -1.1651  0.7669  0.3042
11794SOL     OW36575   0.708   5.968   6.454  0.1204  0.0844  0.9758
11794SOL    HW136576   0.684   5.949   6.544 -0.5415 -0.7640  0.6318
11794SOL    HW236577   0.656   5.907   6.401 -0.8531  1.7359 -0.0843
11795SOL     OW36578   7.076   7.696   2.376  0.1524 -0.1966 -0.3508
11795SOL    HW136579   7.024   7.773   2.356 -1.8125 -0.9975  1.3700
11795SOL    HW236580   7.152   7.730   2.423 -0.1903  0.7617 -0.4759
11796SOL     OW36581   5.939   5.235   4.964  0.6351  0.0774 -0.1971
11796SOL    HW136582   6.029   5.264   4.957  0.4884  1.1224  1.5008
11796SOL    HW236583   5.943   5.140   4.956  1.7844  0.1738 -0.8742
11797SOL     OW36584   0.594   1.915   3.998 -0.3655 -0.6646  0.1085
11797SOL    HW136585   0.550   1.969   3.932  0.2099 -2.0470 -1.4605
11797SOL    HW236586   0.565   1.826   3.980  0.5885 -1.1982  1.0939
11798SOL     OW36587   2.537   1.065   0.063  0.0650  0.5086 -0.0498
11798SOL    HW136588   2.604   1.004   0.092  0.0589  0.8722  0.7460
11798SOL    HW236589   2.454   1.017   0.071  0.0689  0.5866  0.4892
11799SOL     OW36590   1.569   1.952   1.964  0.4008  0.1440 -0.9226
11799SOL    HW136591   1.481   1.954   2.001  0.1083  0.4805 -1.6139
11799SOL    HW236592   1.615   1.884   2.013 -0.1146  0.2638 -0.2707
11800SOL     OW36593   7.642   6.941   7.648  0.3458  0.0304 -0.4554
11800SOL    HW136594   7.601   6.872   7.700  0.8977 -1.5027 -1.9803
11800SOL    HW236595   7.663   7.009   7.712 -0.7071 -0.9590  1.0107
11801SOL     OW36596   8.575   4.015   1.802 -0.3981  0.4414 -0.2469
11801SOL    HW136597   8.534   4.041   1.884  0.0382  1.4232 -0.3200
11801SOL    HW236598   8.653   3.966   1.828 -1.5724 -1.4202 -0.1092
11802SOL     OW36599   7.226   2.277   0.306  0.1946  0.3157 -0.0916
11802SOL    HW136600   7.187   2.257   0.220 -0.1613  1.0589 -0.1128
11802SOL    HW236601   7.309   2.320   0.285  0.4291 -0.1224 -0.0578
11803SOL     OW36602   6.176   0.143   3.244 -0.0215  0.1528 -0.3135
11803SOL    HW136603   6.112   0.214   3.234 -1.5127 -1.0583  0.2207
11803SOL    HW236604   6.173   0.098   3.159  1.4065  1.0748 -0.8844
11804SOL     OW36605   2.304   3.227   1.660 -0.3393 -0.1108  0.2103
11804SOL    HW136606   2.272   3.200   1.747  1.6418  0.7466  1.2553
11804SOL    HW236607   2.324   3.320   1.670 -1.0071  0.2473 -1.4918
11805SOL     OW36608   3.146   4.178   5.611  0.5679 -0.0959 -0.3167
11805SOL    HW136609   3.114   4.250   5.556  1.0183 -0.0215 -0.4814
11805SOL    HW236610   3.239   4.172   5.591  0.2257 -1.8145 -1.5433
11806SOL     OW36611   7.109   2.563   3.659  0.4173 -0.2809 -0.1759
11806SOL    HW136612   7.142   2.639   3.611 -1.3847 -0.7689 -2.3983
11806SOL    HW236613   7.173   2.494   3.640 -0.6703 -0.7013 -2.7840
11807SOL     OW36614   0.992   4.679   6.904 -0.2005  0.2863 -0.1280
11807SOL    HW136615   1.007   4.589   6.875 -0.0517  0.0233  0.7185
11807SOL    HW236616   1.077   4.722   6.894 -0.3783  0.4595 -0.9426
11808SOL     OW36617   5.635   5.607   2.409 -0.5305  0.0130 -0.8181
11808SOL    HW136618   5.603   5.675   2.350 -1.3461  0.2305 -0.1487
11808SOL    HW236619   5.587   5.528   2.383 -2.6319  0.5866  0.9331
11809SOL     OW36620   8.346   6.136   2.397 -0.1042  0.0718  0.1846
11809SOL    HW136621   8.269   6.104   2.443 -0.0277 -0.4179 -0.0258
11809SOL    HW236622   8.337   6.103   2.308 -1.1379  2.4365 -0.6747
11810SOL     OW36623   6.260   4.045   5.629 -0.1390 -0.2684 -0.0979
11810SOL    HW136624   6.185   4.033   5.688 -0.7178 -1.3359 -0.9904
11810SOL    HW236625   6.304   4.124   5.660 -0.9318 -0.3203  1.2038
11811SOL     OW36626   6.459   0.794   1.140 -0.0040 -0.0787 -0.3781
11811SOL    HW136627   6.395   0.865   1.142 -0.0238 -0.1155  0.9862
11811SOL    HW236628   6.489   0.792   1.049  1.6058  3.1191 -0.0789
11812SOL     OW36629   1.621   1.306   3.442 -0.0998 -0.2339 -0.0744
11812SOL    HW136630   1.618   1.241   3.512 -1.3147 -1.4964 -1.2671
11812SOL    HW236631   1.660   1.260   3.368 -0.7944  0.4491 -0.8792
11813SOL     OW36632   2.968   6.531   5.910 -0.0590 -0.2293 -0.0022
11813SOL    HW136633   3.027   6.468   5.871 -0.1393  0.7039 -1.7324
11813SOL    HW236634   2.892   6.532   5.852 -0.6670  0.4317  0.7783
11814SOL     OW36635   8.569   3.346   2.253  0.7636  0.6705  0.0683
11814SOL    HW136636   8.490   3.294   2.267  0.1866  1.7767  1.0347
11814SOL    HW236637   8.599   3.321   2.165 -0.4243 -0.0574 -0.1428
11815SOL     OW36638   6.413   4.847   6.850 -0.8045  0.1457  0.1682
11815SOL    HW136639   6.452   4.875   6.933  0.2910 -1.4802  0.2579
11815SOL    HW236640   6.323   4.879   6.853  0.1301  3.0353  0.4783
11816SOL     OW36641   7.155   4.126   8.073 -0.8097 -1.0278 -0.6198
11816SOL    HW136642   7.148   4.221   8.064  1.4096 -0.8974 -1.5872
11816SOL    HW236643   7.173   4.095   7.985  3.3962 -1.7289  0.2824
11817SOL     OW36644   4.189   3.989   7.616  0.1482  0.4022 -0.0436
11817SOL    HW136645   4.127   3.997   7.543  0.0240 -0.9902 -0.1262
11817SOL    HW236646   4.248   3.918   7.589 -0.2402 -0.5287  1.4183
11818SOL     OW36647   3.695   5.248   6.125  0.3816  0.4087  0.0532
11818SOL    HW136648   3.741   5.255   6.209  0.6326 -0.4409  0.0018
11818SOL    HW236649   3.633   5.177   6.138  1.1290 -0.4357 -0.7789
11819SOL     OW36650   1.790   2.425   7.359 -0.1013 -0.9831  0.3608
11819SOL    HW136651   1.859   2.392   7.417  1.3499  0.1634 -0.6313
11819SOL    HW236652   1.814   2.392   7.273 -0.3891  0.0199 -0.1154
11820SOL     OW36653   2.208   3.978   7.363 -0.6247  0.0077 -0.1512
11820SOL    HW136654   2.240   3.891   7.339  1.1828  0.9646 -1.5589
11820SOL    HW236655   2.205   4.025   7.280 -1.7752  1.2366  0.5545
11821SOL     OW36656   5.483   5.562   3.645  0.8527  0.3677 -0.3030
11821SOL    HW136657   5.438   5.477   3.648 -2.0940  1.8032 -0.6344
11821SOL    HW236658   5.487   5.584   3.552 -0.8446  1.7147 -0.1081
11822SOL     OW36659   2.405   0.026   2.383  0.1122 -0.1443  0.4976
11822SOL    HW136660   2.407   0.111   2.427 -1.1475  0.2731 -0.1870
11822SOL    HW236661   2.464  -0.029   2.434 -0.7837  0.5041  2.3183
11823SOL     OW36662   3.974   4.550   5.780  0.8570 -0.1918 -0.1430
11823SOL    HW136663   3.998   4.640   5.804 -0.5254  0.1687 -0.0469
11823SOL    HW236664   3.882   4.542   5.803  1.1272 -1.8789  0.4987
11824SOL     OW36665   2.376   0.468   0.412  0.3995  0.0639 -0.1853
11824SOL    HW136666   2.332   0.388   0.440 -0.5167  0.1982 -1.1805
11824SOL    HW236667   2.428   0.442   0.336  2.8190 -0.2874  1.4562
11825SOL     OW36668   1.101   4.209   2.211 -0.1566 -0.4914 -0.4391
11825SOL    HW136669   1.092   4.168   2.125 -1.6735 -2.0386  0.3842
11825SOL    HW236670   1.195   4.224   2.221 -0.0011  0.1522 -2.5297
11826SOL     OW36671   8.128   3.567   5.695  0.2252  0.0250 -0.8204
11826SOL    HW136672   8.068   3.566   5.620 -1.4509  0.0635  0.4664
11826SOL    HW236673   8.079   3.612   5.764  1.7621  0.0618  0.2762
11827SOL     OW36674   5.610   0.237   1.418  0.4250 -0.5733  0.2777
11827SOL    HW136675   5.635   0.328   1.401  0.0432 -0.8182 -1.8615
11827SOL    HW236676   5.587   0.235   1.511  0.2662  1.5468  0.3275
11828SOL     OW36677   0.702   6.735   3.709  0.0978 -0.0591  0.4207
11828SOL    HW136678   0.686   6.685   3.789 -1.4844  1.1618  0.9184
11828SOL    HW236679   0.632   6.800   3.708 -0.7911 -0.9271 -2.7015
11829SOL     OW36680   6.386   4.112   7.483 -0.2554  0.1838  0.0809
11829SOL    HW136681   6.422   4.189   7.528  1.7191  0.0753 -1.2177
11829SOL    HW236682   6.367   4.050   7.554  0.3121  0.9907  0.9645
11830SOL     OW36683   1.340   0.018   0.406 -0.2446  0.0872 -0.2682
11830SOL    HW136684   1.348   0.113   0.412  1.7597  0.0340 -1.4155
11830SOL    HW236685   1.351  -0.002   0.314 -2.9336 -1.1538 -0.4262
11831SOL     OW36686   7.051   1.283   1.872 -0.0249 -0.4832 -0.3251
11831SOL    HW136687   7.072   1.222   1.942 -0.6564 -1.2909 -0.8284
11831SOL    HW236688   7.010   1.357   1.917 -0.1581 -0.8630  0.1925
11832SOL     OW36689   3.673   0.448   1.435 -0.0255  0.6565 -0.0916
11832SOL    HW136690   3.651   0.540   1.422  0.0578  0.6828 -0.0481
11832SOL    HW236691   3.652   0.431   1.527 -0.3435  0.5464 -0.1798
11833SOL     OW36692   2.499   5.128   2.708 -0.4230  0.6339 -0.1076
11833SOL    HW136693   2.412   5.105   2.741 -0.5831  0.4053 -0.6864
11833SOL    HW236694   2.510   5.075   2.629 -0.0500  1.1965 -0.4410
11834SOL     OW36695   4.240   7.576   4.794  0.5232 -0.3252  0.4695
11834SOL    HW136696   4.292   7.498   4.811  0.4023 -0.9721 -1.7717
11834SOL    HW236697   4.276   7.643   4.852 -0.4665 -2.3987  3.7502
11835SOL     OW36698   3.520   4.644   4.648 -0.7043 -0.0879  0.3785
11835SOL    HW136699   3.528   4.645   4.552  0.4318 -1.0144  0.4532
11835SOL    HW236700   3.497   4.734   4.670  1.5176  0.7867 -0.5862
11836SOL     OW36701   0.292   1.187   2.304 -0.0827  1.0402  0.1120
11836SOL    HW136702   0.235   1.165   2.377 -0.9706 -0.3623 -0.9327
11836SOL    HW236703   0.354   1.250   2.339  0.0807 -0.2521  2.3040
11837SOL     OW36704   8.380   1.670   2.735 -0.3542  0.3293 -0.5559
11837SOL    HW136705   8.444   1.670   2.807 -1.4995  0.0983  0.4961
11837SOL    HW236706   8.405   1.594   2.681 -2.3800 -2.6975  2.3632
11838SOL     OW36707   6.113   4.959   2.877 -0.0527  0.2411 -0.2471
11838SOL    HW136708   6.118   5.053   2.892  1.2232  0.2805 -0.7505
11838SOL    HW236709   6.078   4.950   2.788 -1.4486  0.1826  0.2834
11839SOL     OW36710   7.634   0.372   1.909  0.5396  0.5881  0.2337
11839SOL    HW136711   7.559   0.354   1.966 -0.1862  2.3709 -0.1077
11839SOL    HW236712   7.605   0.342   1.822  0.7054  0.1445  0.3282
11840SOL     OW36713   7.971   8.590   5.649  0.2044 -0.5254  0.3303
11840SOL    HW136714   8.007   8.661   5.595  0.8005  0.3694  1.8460
11840SOL    HW236715   7.877   8.599   5.641  0.2680  0.6345  0.7087
11841SOL     OW36716   7.466   0.740   3.434  0.3914  0.4575  0.4714
11841SOL    HW136717   7.446   0.824   3.394  1.3328  0.6821  0.4643
11841SOL    HW236718   7.432   0.746   3.523 -0.5987  0.4049  0.1113
11842SOL     OW36719   4.200   0.103   6.013 -0.0911  0.1083 -0.2401
11842SOL    HW136720   4.141   0.033   5.986  0.6179 -0.9888  0.9579
11842SOL    HW236721   4.191   0.107   6.108  0.8050  0.7899 -0.1738
11843SOL     OW36722   7.101   2.447   4.898  0.6308  0.2401  0.3214
11843SOL    HW136723   7.163   2.491   4.957 -1.4688  0.8952  2.1911
11843SOL    HW236724   7.038   2.405   4.957  0.1610 -1.7648 -1.4828
11844SOL     OW36725   7.580   4.582   4.586  0.4963 -0.1758 -0.0444
11844SOL    HW136726   7.554   4.663   4.629 -3.1739 -0.7870 -0.8069
11844SOL    HW236727   7.592   4.606   4.494  1.0621 -0.2066  0.0186
11845SOL     OW36728   5.728   4.445   1.707  0.3426 -0.2596 -0.2033
11845SOL    HW136729   5.724   4.540   1.713  1.9991 -0.2461  1.9076
11845SOL    HW236730   5.699   4.425   1.618  1.1513  2.3043 -1.1250
11846SOL     OW36731   6.422   4.154   4.803 -0.2283  0.3830 -0.1308
11846SOL    HW136732   6.416   4.156   4.708 -0.6810 -0.8703 -0.1397
11846SOL    HW236733   6.358   4.088   4.830 -0.0326  0.6511  1.0365
11847SOL     OW36734   3.061   6.163   1.197  0.2909  0.2045  0.0470
11847SOL    HW136735   3.123   6.102   1.235 -1.4112 -0.3568  2.0952
11847SOL    HW236736   2.991   6.108   1.162  0.4675  0.8669 -1.4549
11848SOL     OW36737   6.049   2.213   7.509 -0.1309  0.4089 -0.3345
11848SOL    HW136738   6.018   2.233   7.597  1.3646  1.3507  0.0200
11848SOL    HW236739   6.121   2.151   7.523 -0.6558 -0.3652 -0.9956
11849SOL     OW36740   5.530   3.169   2.836  0.3313  0.0345  0.2328
11849SOL    HW136741   5.442   3.151   2.870  0.5949  0.5722  1.2460
11849SOL    HW236742   5.515   3.199   2.746 -0.3740 -1.5523 -0.2244
11850SOL     OW36743   2.625   8.127   4.167 -0.0806 -0.2514 -0.6884
11850SOL    HW136744   2.603   8.057   4.105 -0.2165  0.9491 -2.0586
11850SOL    HW236745   2.577   8.204   4.134 -2.0480 -0.0521  2.2236
11851SOL     OW36746   1.241   2.121   3.714 -0.4474  0.2261  0.1107
11851SOL    HW136747   1.308   2.055   3.692 -0.2122  0.8939 -1.3144
11851SOL    HW236748   1.274   2.162   3.794 -0.2995 -0.9753  0.6879
11852SOL     OW36749   4.890   1.210   4.373  0.2382 -0.5284  0.2073
11852SOL    HW136750   4.943   1.230   4.296  1.0733 -2.4064  0.2529
11852SOL    HW236751   4.843   1.131   4.349 -2.6526  1.0731  0.1712
11853SOL     OW36752   0.256   4.441   1.785  0.1136 -0.3827 -0.0867
11853SOL    HW136753   0.244   4.353   1.751 -0.9788  0.1739 -1.2193
11853SOL    HW236754   0.351   4.456   1.783  0.2040 -1.0494 -1.1265
11854SOL     OW36755   7.718   5.997   8.349 -0.1583 -0.2566 -0.1521
11854SOL    HW136756   7.717   5.951   8.265 -2.8916 -0.8478  0.1248
11854SOL    HW236757   7.740   5.929   8.413 -1.8480 -0.7233 -0.0151
11855SOL     OW36758   0.967   6.381   7.418  0.4455  0.4418  0.3708
11855SOL    HW136759   1.036   6.363   7.482 -1.4582 -1.0422  2.1519
11855SOL    HW236760   0.885   6.365   7.466 -1.1320  1.0844 -1.9424
11856SOL     OW36761   0.444   0.759   0.951  0.2821 -0.0248 -0.0634
11856SOL    HW136762   0.464   0.829   1.013  1.9469  0.0447 -0.6292
11856SOL    HW236763   0.520   0.756   0.893 -0.0673 -1.8392 -0.4811
11857SOL     OW36764   2.219   6.300   6.682  0.1459  0.2747  0.2107
11857SOL    HW136765   2.154   6.297   6.753 -1.0504 -0.5259 -0.8916
11857SOL    HW236766   2.168   6.313   6.603  1.2550 -1.2119 -0.8007
11858SOL     OW36767   6.168   2.895   1.115  0.0232  0.2318 -0.5162
11858SOL    HW136768   6.253   2.853   1.100  0.2288 -0.1687  1.5466
11858SOL    HW236769   6.118   2.832   1.166 -0.3900  1.6552  0.9393
11859SOL     OW36770   3.169   3.818   2.686  0.1013 -0.3395 -0.1410
11859SOL    HW136771   3.222   3.891   2.718 -1.4092 -0.5631  3.4268
11859SOL    HW236772   3.226   3.742   2.693  1.2466  0.2046 -2.5839
11860SOL     OW36773   1.013   4.010   7.441  0.3224 -0.1400  0.3417
11860SOL    HW136774   0.989   4.100   7.464  1.3627  0.3834 -0.4696
11860SOL    HW236775   0.938   3.957   7.465 -0.1056  0.8862  1.3126
11861SOL     OW36776   5.639   0.208   4.095  0.1360  0.4400 -0.1834
11861SOL    HW136777   5.549   0.175   4.100  0.7405 -1.4258 -0.5515
11861SOL    HW236778   5.691   0.131   4.072  1.7299  1.6563 -0.8409
11862SOL     OW36779   1.391   6.752   3.322  0.0487  0.4725 -0.2191
11862SOL    HW136780   1.353   6.822   3.376  2.0119  2.2683 -0.9957
11862SOL    HW236781   1.461   6.796   3.273  2.1354 -2.2655  0.0690
11863SOL     OW36782   3.191   7.966   0.454 -0.0194 -0.2498 -0.3867
11863SOL    HW136783   3.268   7.917   0.483  0.1215 -0.3912 -0.9894
11863SOL    HW236784   3.123   7.940   0.516  0.4387 -0.0452  0.2121
11864SOL     OW36785   7.411   4.711   8.150  0.5388 -0.0327  0.2205
11864SOL    HW136786   7.476   4.647   8.122 -0.3347 -0.4538 -0.9258
11864SOL    HW236787   7.384   4.755   8.069 -0.0729  0.6386  0.7690
11865SOL     OW36788   7.078   2.723   4.521 -0.0862 -0.4486  0.2089
11865SOL    HW136789   7.084   2.677   4.437  1.6681 -1.8767  1.0395
11865SOL    HW236790   7.033   2.661   4.578 -0.1320 -0.0081  0.6482
11866SOL     OW36791   4.979   4.940   5.453  0.6347  0.0188  0.2314
11866SOL    HW136792   4.964   4.915   5.544  3.5274  0.0698  0.8350
11866SOL    HW236793   5.074   4.944   5.445  0.4849 -0.2068 -2.8888
11867SOL     OW36794   7.771   7.024   6.719  0.3619 -0.6430  0.3045
11867SOL    HW136795   7.786   6.949   6.777  1.0954 -0.3186  0.5466
11867SOL    HW236796   7.794   7.100   6.772 -1.5567 -0.1285  0.4828
11868SOL     OW36797   1.234   3.362   6.667  0.7847  0.7034  0.2160
11868SOL    HW136798   1.234   3.373   6.762  1.8739 -0.0964  0.3354
11868SOL    HW236799   1.307   3.301   6.651 -1.3328 -1.7265 -0.8408
11869SOL     OW36800   3.307   0.542   0.723 -0.4739  0.2162 -0.0237
11869SOL    HW136801   3.232   0.592   0.691 -0.5455 -0.1467 -0.4277
11869SOL    HW236802   3.320   0.474   0.658  0.5593  0.6110 -0.2453
11870SOL     OW36803   1.540   0.733   6.023 -0.4087 -0.0580 -0.1973
11870SOL    HW136804   1.553   0.700   5.934  1.2911  0.6809 -0.2503
11870SOL    HW236805   1.458   0.783   6.017 -0.8491 -0.8536 -1.0875
11871SOL     OW36806   4.893   7.121   0.547 -0.1552 -0.0455 -0.2066
11871SOL    HW136807   4.861   7.209   0.528  1.0342  0.1945 -1.2426
11871SOL    HW236808   4.858   7.067   0.475  0.7654 -0.0024 -0.7061
11872SOL     OW36809   6.520   1.244   3.979 -0.0396  0.3617  0.0072
11872SOL    HW136810   6.495   1.302   4.052  0.5101  0.9793 -0.2836
11872SOL    HW236811   6.509   1.156   4.014  2.2827  0.6001  1.6089
11873SOL     OW36812   4.016   2.808   5.214 -0.5959 -0.2310 -0.2172
11873SOL    HW136813   4.109   2.820   5.195 -0.4604  0.5873  0.8829
11873SOL    HW236814   4.014   2.756   5.294 -1.0016  1.7196  1.1229
11874SOL     OW36815   7.493   1.754   2.065  0.4059 -0.2739  0.5507
11874SOL    HW136816   7.579   1.792   2.081  0.4412 -0.7930  1.6585
11874SOL    HW236817   7.442   1.826   2.026  0.9453  0.4333  1.1277
11875SOL     OW36818   0.619   7.251   6.273 -0.3587  0.3584 -0.2636
11875SOL    HW136819   0.657   7.326   6.228  1.7500  1.1815  2.6182
11875SOL    HW236820   0.547   7.287   6.325  0.1029  0.2753  0.4514
11876SOL     OW36821   6.950   3.960   7.051 -0.6951  0.2608  0.2506
11876SOL    HW136822   7.040   3.962   7.018 -1.5537  0.8115 -2.3349
11876SOL    HW236823   6.922   4.052   7.052 -1.9649 -0.0541 -1.4106
11877SOL     OW36824   5.296   3.798   4.228  0.1584  0.1112 -0.2711
11877SOL    HW136825   5.255   3.858   4.166 -1.1123 -0.3948  0.0421
11877SOL    HW236826   5.223   3.760   4.276  1.1359  0.8098  1.8540
11878SOL     OW36827   7.882   1.160   8.301 -0.0169 -0.2889 -0.6457
11878SOL    HW136828   7.834   1.178   8.220 -2.2522  1.8598  1.0112
11878SOL    HW236829   7.940   1.236   8.312  0.0301 -0.4067 -0.0534
11879SOL     OW36830   0.011   2.736   1.860 -0.6688  0.2301  0.4601
11879SOL    HW136831   0.037   2.780   1.940 -0.2392  1.0872 -0.1357
11879SOL    HW236832   0.093   2.698   1.826 -0.8159  0.0223  0.3360
11880SOL     OW36833   3.695   2.644   3.194  0.0466  0.3215 -0.0155
11880SOL    HW136834   3.703   2.659   3.100  1.1858 -0.3466 -0.0348
11880SOL    HW236835   3.619   2.587   3.203 -1.3253  2.0129 -0.3328
11881SOL     OW36836   0.351   5.193   4.763  1.1588  0.3327  0.5493
11881SOL    HW136837   0.258   5.216   4.761  0.6624 -1.4933  0.3201
11881SOL    HW236838   0.393   5.258   4.707 -0.0164  1.0404  0.4547
11882SOL     OW36839   5.203   4.169   2.728  0.3239 -0.6450 -0.0213
11882SOL    HW136840   5.278   4.188   2.671 -1.3378  0.1506 -2.0595
11882SOL    HW236841   5.131   4.217   2.689 -0.8551  0.3179  3.0726
11883SOL     OW36842   7.974   7.999   4.825 -0.4539 -0.6807 -0.4943
11883SOL    HW136843   7.885   7.965   4.816 -1.4838  1.7427 -0.3898
11883SOL    HW236844   7.988   8.003   4.920 -0.7704  0.1393 -0.4732
11884SOL     OW36845   6.496   4.559   6.407  0.2066  0.2979  0.0693
11884SOL    HW136846   6.445   4.622   6.356 -0.6894 -0.4182  0.0449
11884SOL    HW236847   6.584   4.596   6.410  0.3057  0.3544 -2.0401
11885SOL     OW36848   1.551   2.478   4.854  1.0557  0.0312 -0.1182
11885SOL    HW136849   1.507   2.511   4.932 -0.9979 -1.4957 -0.5222
11885SOL    HW236850   1.583   2.556   4.809 -0.8236  1.2275  0.4998
11886SOL     OW36851   1.787   8.291   3.898 -0.3337 -0.1347 -0.5934
11886SOL    HW136852   1.788   8.364   3.835 -0.3020  0.1479 -0.2682
11886SOL    HW236853   1.706   8.244   3.879 -1.7937  1.5741  0.9808
11887SOL     OW36854   3.544   0.183   5.580 -0.1546 -0.0844 -0.3169
11887SOL    HW136855   3.635   0.180   5.610 -1.2558 -1.5307  3.4351
11887SOL    HW236856   3.516   0.273   5.596 -0.3793 -0.5452  2.3689
11888SOL     OW36857   8.350   7.933   2.828  0.1243  0.1673 -0.0263
11888SOL    HW136858   8.339   7.868   2.758 -0.3339  1.0718 -0.8300
11888SOL    HW236859   8.334   8.017   2.784 -0.3353  0.7439  1.2078
11889SOL     OW36860   8.314   4.266   0.558 -0.5052  0.8320  0.4605
11889SOL    HW136861   8.362   4.314   0.491  0.2198  2.4744  2.0885
11889SOL    HW236862   8.245   4.220   0.509  2.1121 -0.9825 -1.8534
11890SOL     OW36863   2.043   0.491   1.738 -0.3205  0.2269 -0.1698
11890SOL    HW136864   2.131   0.455   1.739  0.3174  1.3204 -3.5164
11890SOL    HW236865   2.048   0.570   1.790 -0.0195 -0.9423  1.6632
11891SOL     OW36866   7.333   6.667   6.993 -0.3001  0.2174  0.0657
11891SOL    HW136867   7.269   6.675   6.923  1.0688  2.2512 -1.0431
11891SOL    HW236868   7.366   6.756   7.006  1.6586 -0.6117  1.2111
11892SOL     OW36869   6.053   0.677   2.421  0.0230 -0.5608  0.5033
11892SOL    HW136870   6.037   0.696   2.513  0.0095 -0.8680  0.5648
11892SOL    HW236871   5.980   0.720   2.375 -0.6925 -1.4838  0.7372
11893SOL     OW36872   6.829   4.079   3.086  0.4229 -0.4153  0.3551
11893SOL    HW136873   6.858   4.142   3.020 -1.0536 -0.2332 -0.1514
11893SOL    HW236874   6.857   4.117   3.169  0.0860  0.6162  0.0086
11894SOL     OW36875   4.176   0.268   4.684  0.1396  0.1895  0.3154
11894SOL    HW136876   4.182   0.303   4.774 -1.5836  1.4985 -0.0172
11894SOL    HW236877   4.083   0.247   4.673  0.2764  0.3091 -1.2433
11895SOL     OW36878   4.291   1.192   6.520  0.1758  0.0964  0.0785
11895SOL    HW136879   4.350   1.246   6.467  0.1268  0.6253  0.5570
11895SOL    HW236880   4.348   1.146   6.581 -0.0132  1.7815  1.5843
11896SOL     OW36881   2.445   4.935   0.198  0.0064 -0.2028 -0.4821
11896SOL    HW136882   2.377   4.981   0.148 -0.4728 -1.4285 -0.9835
11896SOL    HW236883   2.403   4.914   0.281 -0.1298 -0.6900 -0.6735
11897SOL     OW36884   7.200   6.567   1.951  0.0836  0.4788  0.0527
11897SOL    HW136885   7.289   6.562   1.987 -0.1473 -2.0050  0.4370
11897SOL    HW236886   7.211   6.613   1.867  1.9733 -0.8667 -0.5128
11898SOL     OW36887   2.137   6.447   4.189  0.0104  0.0423 -0.3946
11898SOL    HW136888   2.150   6.361   4.148 -1.4504  0.0663 -0.9699
11898SOL    HW236889   2.112   6.504   4.117 -0.6664  0.5512  0.2314
11899SOL     OW36890   5.259   1.480   5.832  0.4052 -0.0495 -0.2615
11899SOL    HW136891   5.194   1.470   5.901  0.4382  1.0910 -0.0363
11899SOL    HW236892   5.214   1.530   5.764  0.5829 -0.5792 -0.7710
11900SOL     OW36893   5.680   3.674   3.988  0.3016  0.8634 -0.4152
11900SOL    HW136894   5.713   3.763   4.002 -0.1506  1.2920 -1.8900
11900SOL    HW236895   5.597   3.671   4.035  0.5182  1.0782 -0.0150
11901SOL     OW36896   5.499   1.445   5.516  0.2637 -0.4982 -0.3601
11901SOL    HW136897   5.560   1.519   5.515  0.5859 -0.7655 -0.7841
11901SOL    HW236898   5.412   1.486   5.515  0.4325 -0.1224 -2.2167
11902SOL     OW36899   1.476   2.429   3.072 -0.0949  0.1020 -0.0468
11902SOL    HW136900   1.440   2.461   2.990 -0.1102  0.9636  0.2838
11902SOL    HW236901   1.401   2.421   3.131  0.2051  1.9617  0.6629
11903SOL     OW36902   3.327   7.972   5.976 -0.0993  0.2462 -0.2552
11903SOL    HW136903   3.272   7.920   6.034  0.3651 -1.5044 -1.2954
11903SOL    HW236904   3.417   7.954   6.005  0.1030 -0.1874 -1.1128
11904SOL     OW36905   8.289   5.695   0.778 -0.0657 -0.1315 -0.0804
11904SOL    HW136906   8.349   5.708   0.852 -1.1855  0.3463  0.7785
11904SOL    HW236907   8.346   5.668   0.706  1.0351 -0.8637  1.0130
11905SOL     OW36908   6.625   2.414   4.620  0.3322  0.0465  0.2675
11905SOL    HW136909   6.715   2.398   4.593  0.5320  0.4516  0.6935
11905SOL    HW236910   6.615   2.509   4.617 -1.3037 -0.0427 -3.7542
11906SOL     OW36911   5.176   6.648   6.871 -0.3706 -0.0307  0.3134
11906SOL    HW136912   5.132   6.591   6.934 -2.6699 -1.0526 -2.0287
11906SOL    HW236913   5.209   6.588   6.804 -0.7937  1.1885 -1.0315
11907SOL     OW36914   0.324   7.859   1.497  0.2803  0.1395  0.5296
11907SOL    HW136915   0.348   7.829   1.585  0.0372  0.8177  0.8327
11907SOL    HW236916   0.356   7.790   1.439  3.7803  1.3693  0.8037
11908SOL     OW36917   6.471   1.064   1.489 -0.3649 -0.3436  0.0639
11908SOL    HW136918   6.434   1.141   1.447 -1.3922 -0.4051  0.8265
11908SOL    HW236919   6.402   0.998   1.484 -0.2056 -0.6107  1.0827
11909SOL     OW36920   0.081   1.367   2.894  1.0392 -0.3158  0.0934
11909SOL    HW136921   0.062   1.404   2.980  0.3905 -0.3250 -0.0362
11909SOL    HW236922   0.173   1.340   2.899  1.4398  1.0044  0.2955
11910SOL     OW36923   6.778   4.455   6.383  0.4638 -0.0123 -0.4882
11910SOL    HW136924   6.822   4.509   6.449 -1.0414 -0.2405  0.7756
11910SOL    HW236925   6.848   4.423   6.327  1.6075  1.6671 -0.0974
11911SOL     OW36926   6.290   0.513   3.968 -0.5575 -0.1856 -0.8370
11911SOL    HW136927   6.262   0.429   4.004 -1.2152  0.2345 -0.3507
11911SOL    HW236928   6.208   0.559   3.946 -0.3598  1.4146  1.4144
11912SOL     OW36929   6.968   0.527   8.155  0.5673  0.5582  0.2636
11912SOL    HW136930   7.053   0.543   8.195  0.9070  1.9469 -0.9474
11912SOL    HW236931   6.924   0.467   8.216  1.3435  1.9618  2.2985
11913SOL     OW36932   1.270   0.056   1.649  1.1025  0.0264  0.2585
11913SOL    HW136933   1.195   0.114   1.666  0.9229 -0.0084 -0.3797
11913SOL    HW236934   1.264  -0.011   1.717 -0.1602 -0.6549 -0.4805
11914SOL     OW36935   3.860   5.465   3.999 -0.1636 -0.4183  0.0810
11914SOL    HW136936   3.769   5.468   4.027 -0.5417  2.1613 -1.2155
11914SOL    HW236937   3.907   5.519   4.063 -0.0183  0.4908 -0.7781
11915SOL     OW36938   5.394   2.671   2.241 -0.0670 -0.2793  0.0829
11915SOL    HW136939   5.480   2.631   2.229  0.9814  1.5023  1.2408
11915SOL    HW236940   5.348   2.611   2.300  0.8774 -0.6005  0.5199
11916SOL     OW36941   7.578   1.724   1.493  0.1813  0.2831  0.0842
11916SOL    HW136942   7.539   1.675   1.420 -1.5805 -0.4191  1.4242
11916SOL    HW236943   7.648   1.776   1.453 -0.6277 -0.1989 -2.0707
11917SOL     OW36944   4.145   7.665   6.080  0.0577  0.2822 -0.0007
11917SOL    HW136945   4.156   7.649   5.986  0.6776  0.8210 -0.0318
11917SOL    HW236946   4.083   7.599   6.109  1.3064 -1.1241 -0.4121
11918SOL     OW36947   7.989   4.144   2.800 -0.6968 -0.1958  0.2750
11918SOL    HW136948   8.023   4.094   2.874  1.6955  1.1636  0.2025
11918SOL    HW236949   7.958   4.226   2.838  1.5188  0.9603 -0.2249
11919SOL     OW36950   0.938   7.654   5.758 -0.4302 -0.0190  0.0117
11919SOL    HW136951   0.859   7.605   5.740 -0.4905  0.0920 -0.0298
11919SOL    HW236952   0.932   7.678   5.850 -0.9145  0.8211 -0.2267
11920SOL     OW36953   2.871   2.949   2.447  0.7763  0.0388  0.0499
11920SOL    HW136954   2.817   3.004   2.391 -0.3354 -0.8419  0.1986
11920SOL    HW236955   2.833   2.961   2.535  2.2327  1.0900  0.5703
11921SOL     OW36956   2.039   7.621   6.046  0.5755  0.1754  0.8558
11921SOL    HW136957   2.037   7.717   6.050 -0.6097  0.1345  2.0672
11921SOL    HW236958   1.969   7.598   5.985  0.6426  0.0742  0.8177
11922SOL     OW36959   5.464   2.998   6.646  0.4866  0.3191  0.1471
11922SOL    HW136960   5.373   3.024   6.664  0.1776  1.0390 -2.1025
11922SOL    HW236961   5.464   2.903   6.655 -0.6187  0.2635 -0.2967
11923SOL     OW36962   8.263   3.051   0.879  0.4886  0.1590  0.0072
11923SOL    HW136963   8.287   2.970   0.835  0.9765  0.1021  0.3800
11923SOL    HW236964   8.237   3.025   0.967 -1.7651  0.1089 -0.6100
11924SOL     OW36965   3.097   6.656   7.779 -0.4832  0.3610  0.0926
11924SOL    HW136966   3.155   6.721   7.820 -0.5461  0.8884 -0.6263
11924SOL    HW236967   3.009   6.678   7.812 -0.4593  0.4263  0.1126
11925SOL     OW36968   6.805   1.732   5.595 -0.0218 -0.1013  0.9897
11925SOL    HW136969   6.765   1.669   5.654 -0.1997 -0.4338  0.5270
11925SOL    HW236970   6.754   1.812   5.605 -0.4789 -0.3635  0.7910
11926SOL     OW36971   3.373   3.113   4.131  0.0285 -0.1031 -0.3294
11926SOL    HW136972   3.363   3.201   4.168 -0.2330 -0.4630  0.4719
11926SOL    HW236973   3.317   3.058   4.184  0.8397 -0.9071 -0.2804
11927SOL     OW36974   1.194   6.187   5.350 -0.1786 -0.1782 -0.1499
11927SOL    HW136975   1.131   6.188   5.278 -0.3133 -0.7992 -0.0482
11927SOL    HW236976   1.186   6.099   5.387 -1.0339  0.5327  1.4390
11928SOL     OW36977   0.991   5.064   7.499  0.0606 -0.2045  0.0531
11928SOL    HW136978   1.032   5.114   7.569  1.1525 -1.9855  0.7446
11928SOL    HW236979   1.058   5.058   7.431  0.0436 -0.9825  0.1059
11929SOL     OW36980   1.576   4.165   3.390  1.0838  0.2327  0.1111
11929SOL    HW136981   1.608   4.149   3.301  0.8518 -0.9677  0.2218
11929SOL    HW236982   1.608   4.252   3.411 -0.9022  1.6094 -2.0427
11930SOL     OW36983   8.472   4.049   7.862  0.0035  0.2866 -0.3398
11930SOL    HW136984   8.462   4.088   7.775  0.1629 -0.2068 -0.5780
11930SOL    HW236985   8.566   4.033   7.871 -0.0416  0.1096 -0.1731
11931SOL     OW36986   5.981   7.627   3.124  0.0550  0.5668  0.4208
11931SOL    HW136987   5.996   7.626   3.218 -2.1711 -0.4083  0.8321
11931SOL    HW236988   6.068   7.635   3.086  1.0698  0.3076  2.5488
11932SOL     OW36989   2.861   4.869   4.086  0.2345  0.8802 -0.7405
11932SOL    HW136990   2.925   4.799   4.074 -0.6851 -0.3442  1.0287
11932SOL    HW236991   2.781   4.835   4.046 -0.4449  0.5008  0.8496
11933SOL     OW36992   5.760   5.141   2.420 -0.0177  0.1752  0.0270
11933SOL    HW136993   5.683   5.084   2.413  0.2883 -0.3056  0.5168
11933SOL    HW236994   5.781   5.142   2.513 -0.7147  2.0289  0.2065
11934SOL     OW36995   5.919   2.130   0.369 -0.0230  0.2228  0.2783
11934SOL    HW136996   5.909   2.225   0.362 -0.7322  0.1099 -0.2939
11934SOL    HW236997   5.869   2.095   0.296  0.1351 -0.6017  0.5585
11935SOL     OW36998   0.905   3.540   7.938 -0.2811 -0.0600 -0.2111
11935SOL    HW136999   0.964   3.513   8.008  2.0060 -0.7268 -2.2475
11935SOL    HW237000   0.963   3.561   7.864 -2.5601  0.0715 -2.0919
11936SOL     OW37001   2.288   5.418   3.365 -0.4718 -0.4660 -0.3518
11936SOL    HW137002   2.349   5.420   3.440 -1.6819  1.7569  0.6685
11936SOL    HW237003   2.336   5.461   3.295  0.4206 -1.9587 -0.7010
11937SOL     OW37004   2.737   0.760   7.240 -0.0524  0.2274 -0.1284
11937SOL    HW137005   2.685   0.805   7.173 -1.2188  1.4508  1.5323
11937SOL    HW237006   2.686   0.681   7.260  0.0075  0.1558 -0.2526
11938SOL     OW37007   6.607   2.675   5.856  0.3660  0.3760  0.3939
11938SOL    HW137008   6.549   2.751   5.848  1.4005  1.0958 -0.4077
11938SOL    HW237009   6.584   2.637   5.941 -1.7545  0.2367 -0.1654
11939SOL     OW37010   3.931   6.096   5.367 -0.0280  0.4627  0.5871
11939SOL    HW137011   3.842   6.062   5.380  0.1229  0.1072  0.7166
11939SOL    HW237012   3.923   6.191   5.379 -0.2231  0.3382  1.5725
11940SOL     OW37013   7.830   0.439   4.326 -0.3688 -0.3239  0.4075
11940SOL    HW137014   7.755   0.447   4.267  2.0172  0.7566 -2.7406
11940SOL    HW237015   7.890   0.380   4.281  0.9258 -0.8481  2.6442
11941SOL     OW37016   3.836   2.828   7.528  0.4474 -0.0371 -0.3936
11941SOL    HW137017   3.898   2.771   7.484  0.6270 -0.1018 -0.0576
11941SOL    HW237018   3.824   2.789   7.615  0.0544  0.0581 -0.4037
11942SOL     OW37019   2.486   8.508   4.966 -0.4019  0.3183  0.1673
11942SOL    HW137020   2.548   8.544   5.030  0.5314  0.1080 -0.5946
11942SOL    HW237021   2.450   8.430   5.010  1.0888 -0.4877  0.0255
11943SOL     OW37022   3.783   0.822   6.896 -0.0235  0.6497  0.3294
11943SOL    HW137023   3.771   0.882   6.822 -0.0750  0.7615  0.4272
11943SOL    HW237024   3.760   0.875   6.972 -2.0687 -0.0725  0.2662
11944SOL     OW37025   0.991   4.304   5.144 -0.0554 -0.2685 -0.2757
11944SOL    HW137026   0.990   4.392   5.108  1.6580 -0.0105  0.2437
11944SOL    HW237027   0.951   4.249   5.076 -2.5692  1.0749 -0.0025
11945SOL     OW37028   1.090   1.852   6.745  0.5305  0.5712  0.3872
11945SOL    HW137029   1.177   1.892   6.749  0.7186  0.5424 -2.0962
11945SOL    HW237030   1.105   1.759   6.763  0.6046  0.9565  2.5259
11946SOL     OW37031   0.741   3.282   1.056  0.0704 -0.3095  0.1618
11946SOL    HW137032   0.826   3.237   1.048  1.5162  2.4101 -0.9606
11946SOL    HW237033   0.703   3.276   0.968 -0.7120 -1.0488  0.5313
11947SOL     OW37034   1.002   1.806   3.828  0.1523 -0.2486  0.1905
11947SOL    HW137035   1.057   1.729   3.814 -0.1814 -0.4208 -0.1908
11947SOL    HW237036   0.913   1.773   3.823 -0.0217  0.4194 -1.5794
11948SOL     OW37037   4.389   1.003   2.715  0.2413 -0.5419  0.1881
11948SOL    HW137038   4.394   0.908   2.707  1.2599 -0.3725 -1.9005
11948SOL    HW237039   4.399   1.020   2.809  0.3491 -2.4687  0.5618
11949SOL     OW37040   8.444   5.417   2.876 -0.2469 -0.4887  0.4783
11949SOL    HW137041   8.392   5.369   2.811 -1.0114  2.2119 -1.0487
11949SOL    HW237042   8.394   5.408   2.957 -3.5773  2.3568 -1.0136
11950SOL     OW37043   5.923   6.205   3.137 -0.5146 -0.0342  0.3091
11950SOL    HW137044   5.980   6.191   3.213 -2.8607 -0.2580  2.1077
11950SOL    HW237045   5.924   6.300   3.124 -1.3127  0.1779  1.6409
11951SOL     OW37046   8.384   3.858   3.264 -0.1087  0.4794 -0.0744
11951SOL    HW137047   8.356   3.827   3.350  0.2457 -0.4912 -0.3018
11951SOL    HW237048   8.323   3.816   3.203  1.1473 -0.8074 -0.4885
11952SOL     OW37049   2.844   0.518   5.252 -0.2803 -0.1654 -0.0537
11952SOL    HW137050   2.858   0.437   5.300 -1.0984 -0.7792 -0.8189
11952SOL    HW237051   2.921   0.572   5.272  0.0904 -0.9761  0.7528
11953SOL     OW37052   8.594   5.335   8.508  0.2008 -0.7828  0.0324
11953SOL    HW137053   8.629   5.260   8.458 -0.1159 -0.1343 -1.2041
11953SOL    HW237054   8.549   5.295   8.582  1.3660 -1.7461  0.2578
11954SOL     OW37055   6.069   5.668   7.630  0.1298 -0.2911 -0.0894
11954SOL    HW137056   6.088   5.762   7.633 -1.6742  0.2641 -2.4618
11954SOL    HW237057   6.043   5.652   7.539 -0.3286 -2.9499  0.4296
11955SOL     OW37058   3.843   6.204   4.049  0.0028  0.2429 -0.2942
11955SOL    HW137059   3.851   6.295   4.075  0.2349 -0.4325  2.3256
11955SOL    HW237060   3.749   6.188   4.044 -0.0369  0.7003 -1.1393
11956SOL     OW37061   1.381   0.629   2.592  0.0661 -0.3688  0.0090
11956SOL    HW137062   1.438   0.653   2.665 -0.6829  1.0677  0.1711
11956SOL    HW237063   1.305   0.686   2.602 -0.5220 -0.8808 -1.3050
11957SOL     OW37064   6.047   4.372   8.217 -0.0332  0.2129 -0.2153
11957SOL    HW137065   6.092   4.294   8.249 -0.4810 -0.3399 -0.8993
11957SOL    HW237066   6.032   4.426   8.296 -1.8357 -1.4673  0.6820
11958SOL     OW37067   0.124   6.972   8.225 -0.4908 -0.1122  0.4999
11958SOL    HW137068   0.202   6.926   8.255  0.5745  0.4093 -1.3406
11958SOL    HW237069   0.109   7.039   8.291  0.2323 -0.6238  1.2029
11959SOL     OW37070   0.641   4.445   3.909 -0.0171 -0.4329 -0.0424
11959SOL    HW137071   0.690   4.400   3.841 -0.5908 -0.6458 -0.3267
11959SOL    HW237072   0.686   4.424   3.990  0.4459 -0.4998 -0.3167
11960SOL     OW37073   2.462   1.260   4.646 -0.0916  0.1113  1.1743
11960SOL    HW137074   2.500   1.268   4.558 -1.2301  1.9776  0.7738
11960SOL    HW237075   2.461   1.166   4.664  0.1152 -0.3229 -0.8436
11961SOL     OW37076   5.994   1.149   7.517  0.1288  0.2130 -0.1617
11961SOL    HW137077   5.957   1.164   7.429  1.2563 -1.9102 -1.0669
11961SOL    HW237078   6.069   1.208   7.522 -0.0322  0.4581 -0.5539
11962SOL     OW37079   1.514   7.026   6.978  0.5641 -0.4736  0.2985
11962SOL    HW137080   1.602   7.008   7.013  1.1562 -0.8398 -1.2728
11962SOL    HW237081   1.527   7.031   6.883 -1.1343 -0.5934  0.0261
11963SOL     OW37082   3.890   2.389   3.222  0.1620 -0.0789 -0.2031
11963SOL    HW137083   3.872   2.296   3.215  4.0449 -1.0481  0.3656
11963SOL    HW237084   3.843   2.429   3.149 -1.9784 -2.3473 -0.1711
11964SOL     OW37085   7.417   7.740   0.519 -0.3959 -0.2300 -0.5948
11964SOL    HW137086   7.330   7.777   0.528 -0.3065 -0.0007 -0.6792
11964SOL    HW237087   7.405   7.646   0.537 -1.2797 -0.8786 -3.8415
11965SOL     OW37088   5.560   1.564   2.734 -0.4033  0.0901  0.0623
11965SOL    HW137089   5.520   1.487   2.774  0.4658  0.9216  2.7424
11965SOL    HW237090   5.653   1.542   2.729 -0.5412 -0.1564 -2.0167
11966SOL     OW37091   2.755   6.736   5.363 -0.4343 -0.1368  0.0069
11966SOL    HW137092   2.734   6.829   5.368 -1.6129 -0.3826 -0.0547
11966SOL    HW237093   2.753   6.716   5.269 -0.4329 -0.2780  0.0363
11967SOL     OW37094   6.758   5.172   4.253  0.0497  0.8818  0.0841
11967SOL    HW137095   6.838   5.225   4.262 -0.7142  1.9183  1.0532
11967SOL    HW237096   6.687   5.236   4.250 -0.9723 -0.0856  1.9139
11968SOL     OW37097   2.515   2.846   7.213 -0.2321  0.0255 -0.5567
11968SOL    HW137098   2.438   2.797   7.241 -1.1278  1.1819 -0.9176
11968SOL    HW237099   2.589   2.799   7.252 -1.0195 -1.7766 -1.1612
11969SOL     OW37100   2.233   2.826   2.737 -0.3637  0.2442  0.1299
11969SOL    HW137101   2.149   2.857   2.770 -0.8536  0.1131 -0.9557
11969SOL    HW237102   2.283   2.906   2.719  0.1612  0.3088  1.7809
11970SOL     OW37103   1.211   0.606   6.987 -0.1452 -0.1392  0.4144
11970SOL    HW137104   1.229   0.562   6.904 -0.3226  0.7043 -0.0842
11970SOL    HW237105   1.237   0.697   6.972 -0.5656  0.1108  1.1530
11971SOL     OW37106   4.084   7.948   5.949  0.3985  0.4161 -0.0654
11971SOL    HW137107   4.098   7.975   6.039 -0.7280 -0.4291  0.3826
11971SOL    HW237108   4.164   7.900   5.925  0.6694  0.5862  0.4937
11972SOL     OW37109   2.746   1.082   0.724 -0.0784  0.1652 -0.2453
11972SOL    HW137110   2.692   1.072   0.803 -1.2264 -2.6354 -1.2606
11972SOL    HW237111   2.832   1.047   0.750 -0.0699  0.4370  0.1065
11973SOL     OW37112   7.924   6.074   0.427 -0.2476  0.3399 -0.2355
11973SOL    HW137113   7.833   6.046   0.421  0.2840 -1.3911 -1.0265
11973SOL    HW237114   7.951   6.087   0.336  1.2425 -2.7416 -0.3879
11974SOL     OW37115   6.283   2.104   2.401  0.5315 -0.2660  0.7272
11974SOL    HW137116   6.370   2.125   2.365 -0.4722  1.4576 -0.8735
11974SOL    HW237117   6.222   2.149   2.343 -1.3861 -0.2367  2.6616
11975SOL     OW37118   4.808   8.364   3.916 -0.0447 -0.1767 -0.8982
11975SOL    HW137119   4.799   8.359   3.821  0.1054  0.7464 -0.9633
11975SOL    HW237120   4.886   8.416   3.931 -1.2597  1.5596 -0.2742
11976SOL     OW37121   2.874   4.231   2.818 -0.1397 -0.1865 -0.0937
11976SOL    HW137122   2.810   4.195   2.757 -0.8412  0.3396  0.3149
11976SOL    HW237123   2.947   4.257   2.763 -0.3459 -0.6295 -0.5914
11977SOL     OW37124   6.412   4.562   2.143  0.4365 -0.2945  0.4657
11977SOL    HW137125   6.337   4.508   2.166  0.1779  0.2804  1.0378
11977SOL    HW237126   6.488   4.505   2.156  0.0696 -1.1180 -0.8654
11978SOL     OW37127   5.556   1.820   0.496  0.0084  0.3903 -0.0406
11978SOL    HW137128   5.542   1.763   0.571 -0.4333 -0.5894 -0.8490
11978SOL    HW237129   5.634   1.871   0.519 -0.6630  0.8072  1.4816
11979SOL     OW37130   7.251   3.757   1.638  0.4921  0.2624 -0.0143
11979SOL    HW137131   7.200   3.811   1.576  1.2129 -1.0191 -1.8219
11979SOL    HW237132   7.223   3.667   1.619 -0.6612 -0.0950  2.9157
11980SOL     OW37133   8.430   5.290   5.430 -0.5513 -0.0509 -0.0366
11980SOL    HW137134   8.344   5.330   5.442  0.2562  1.5212  0.8928
11980SOL    HW237135   8.483   5.327   5.501  0.3856 -2.5540  0.6860
11981SOL     OW37136   3.468   7.682   2.070 -0.1010  0.2342  0.4949
11981SOL    HW137137   3.456   7.595   2.108 -2.6130  0.3820  0.2525
11981SOL    HW237138   3.507   7.666   1.985 -0.4187 -0.6614  0.5052
11982SOL     OW37139   6.466   3.298   3.756 -0.4384  0.0827  0.0005
11982SOL    HW137140   6.552   3.289   3.716  0.1920  1.0959  1.0443
11982SOL    HW237141   6.419   3.219   3.731  0.1121  0.4003 -2.1931
11983SOL     OW37142   0.614   0.688   4.453  0.5804 -0.2855  0.1163
11983SOL    HW137143   0.672   0.660   4.383  2.0162 -0.6284  1.3693
11983SOL    HW237144   0.650   0.646   4.532 -0.6863  0.4383  1.1241
11984SOL     OW37145   6.566   8.589   5.388 -0.0563 -0.3984 -0.4251
11984SOL    HW137146   6.480   8.609   5.425 -0.6688 -2.2793 -0.7421
11984SOL    HW237147   6.616   8.670   5.398 -0.7889 -0.2310  2.7951
11985SOL     OW37148   5.742   3.650   1.476 -0.5647  0.0875  0.3340
11985SOL    HW137149   5.676   3.580   1.476 -1.0738  0.5570  0.1796
11985SOL    HW237150   5.720   3.703   1.553 -1.2066  1.0047 -0.4512
11986SOL     OW37151   3.458   4.608   3.878  0.0188  0.2123 -0.0257
11986SOL    HW137152   3.468   4.614   3.973 -1.9874  0.8728  0.1988
11986SOL    HW237153   3.547   4.605   3.844  0.7720 -0.7813  1.9073
11987SOL     OW37154   3.694   7.751   6.205 -0.0764 -0.5610  0.3535
11987SOL    HW137155   3.729   7.839   6.215 -1.8352  0.3277 -0.8126
11987SOL    HW237156   3.732   7.701   6.277  1.9517  0.8103  0.2962
11988SOL     OW37157   0.496   5.686   3.488 -0.3026 -0.5617 -0.5900
11988SOL    HW137158   0.402   5.700   3.481 -0.4829 -1.6963 -0.5681
11988SOL    HW237159   0.506   5.591   3.497  0.8003 -0.4032  0.0717
11989SOL     OW37160   1.587   6.321   5.605  0.0754 -0.6188 -0.0616
11989SOL    HW137161   1.671   6.281   5.582  0.8389  0.3904  0.8417
11989SOL    HW237162   1.549   6.347   5.521  1.0807 -0.3217 -0.4462
11990SOL     OW37163   4.700   8.566   0.368  0.0922  0.2510  0.2750
11990SOL    HW137164   4.732   8.604   0.286 -0.2313  0.0258  0.0401
11990SOL    HW237165   4.667   8.480   0.343  0.0129  0.1717  0.6472
11991SOL     OW37166   5.608   7.328   3.039 -0.4822  0.3409  0.3769
11991SOL    HW137167   5.683   7.359   3.090 -0.1243 -0.2538  0.2290
11991SOL    HW237168   5.616   7.371   2.954  0.1669 -0.3455  0.0769
11992SOL     OW37169   3.185   1.073   0.877  0.8173  0.1888 -0.0414
11992SOL    HW137170   3.232   1.116   0.806 -0.3304  1.9998  0.2322
11992SOL    HW237171   3.193   1.134   0.951  1.6757 -1.4706  1.3192
11993SOL     OW37172   4.803   8.432   3.637 -0.3752 -0.2744 -1.0925
11993SOL    HW137173   4.734   8.496   3.620 -0.8287  0.1568  1.8995
11993SOL    HW237174   4.779   8.356   3.584 -2.1754  0.5009 -1.4353
11994SOL     OW37175   2.692   7.117   4.140  0.0358  0.4911 -0.4348
11994SOL    HW137176   2.658   7.064   4.211  0.3158 -0.3702 -0.9295
11994SOL    HW237177   2.767   7.163   4.178  2.1737 -2.3369 -0.9001
11995SOL     OW37178   2.718   4.649   7.418  0.4327 -0.0748 -1.2608
11995SOL    HW137179   2.692   4.721   7.360 -0.9338 -0.3807 -1.0702
11995SOL    HW237180   2.813   4.657   7.425  0.5119  0.6005 -2.7073
11996SOL     OW37181   3.831   7.444   5.593  0.6939 -0.0588  0.4992
11996SOL    HW137182   3.856   7.533   5.617  0.3490  0.5684 -1.3156
11996SOL    HW237183   3.807   7.402   5.676  0.4157  1.6797  1.3265
11997SOL     OW37184   3.289   5.220   4.085 -0.4905  0.1707  0.2087
11997SOL    HW137185   3.329   5.306   4.090  0.3157 -0.2656  1.7243
11997SOL    HW237186   3.313   5.188   3.998  1.4110  0.4410  0.5971
11998SOL     OW37187   4.231   8.253   4.576 -0.1269  0.2358 -0.0600
11998SOL    HW137188   4.269   8.337   4.550  0.1848  0.2078  0.2908
11998SOL    HW237189   4.137   8.270   4.582 -0.6097 -0.3622 -3.6235
11999SOL     OW37190   6.736   2.191   2.103 -0.2349  0.6565  0.0459
11999SOL    HW137191   6.788   2.270   2.093 -1.4406  1.6529  1.3860
11999SOL    HW237192   6.795   2.120   2.075  1.1350  1.9177 -0.3858
12000SOL     OW37193   1.240   4.718   2.792 -0.0269 -0.3275  0.0144
12000SOL    HW137194   1.163   4.746   2.741  0.0033 -0.2982 -0.0156
12000SOL    HW237195   1.210   4.720   2.883  0.1374  0.3458  0.0603
12001SOL     OW37196   1.556   0.660   5.712 -0.3526 -0.1008 -0.4246
12001SOL    HW137197   1.464   0.681   5.721 -0.4334  0.3352 -1.9600
12001SOL    HW237198   1.558   0.566   5.695 -0.8116  0.2902 -3.2247
12002SOL     OW37199   5.775   1.395   7.452  0.2564  0.1902 -0.3768
12002SOL    HW137200   5.818   1.325   7.403 -0.3710 -1.9047  1.8978
12002SOL    HW237201   5.839   1.420   7.519 -0.3106  0.2904  0.1381
12003SOL     OW37202   2.408   6.961   6.328 -0.0220  0.4809 -0.0720
12003SOL    HW137203   2.410   6.961   6.423 -2.8478  0.5972  0.0671
12003SOL    HW237204   2.373   7.047   6.304 -2.6701 -0.7143 -0.9569
12004SOL     OW37205   3.995   2.711   2.763 -0.3823  0.1596 -0.5835
12004SOL    HW137206   3.944   2.633   2.743  0.9286 -0.3673 -2.1639
12004SOL    HW237207   4.067   2.679   2.817  0.5633  0.0844 -1.8325
12005SOL     OW37208   4.877   4.315   5.088 -0.6494  0.3509  0.4473
12005SOL    HW137209   4.918   4.228   5.084 -0.4580  0.4556  0.0942
12005SOL    HW237210   4.899   4.355   5.004 -1.1225  0.5676  0.4227
12006SOL     OW37211   6.177   4.810   8.280 -0.0372 -0.2887 -0.0716
12006SOL    HW137212   6.083   4.826   8.280  0.0467  0.2148  0.2149
12006SOL    HW237213   6.186   4.719   8.251 -0.6325 -0.4861  0.3540
12007SOL     OW37214   1.461   4.305   2.112 -0.4166 -0.3360  0.1074
12007SOL    HW137215   1.534   4.243   2.119 -1.5881 -1.7141  0.4878
12007SOL    HW237216   1.424   4.287   2.025 -0.8195 -0.2455  0.2610
12008SOL     OW37217   3.564   3.112   7.011 -0.0748  0.2385  0.2874
12008SOL    HW137218   3.592   3.039   7.067  0.6061  0.0594 -0.2672
12008SOL    HW237219   3.512   3.071   6.943 -0.7922  0.4410  0.7073
12009SOL     OW37220   3.469   5.029   5.919 -0.2410 -0.1709 -0.3284
12009SOL    HW137221   3.460   5.059   6.009 -1.3733  1.6859 -0.9969
12009SOL    HW237222   3.380   5.010   5.891 -0.3313  2.2635 -1.9568
12010SOL     OW37223   3.285   5.959   3.663  0.2032 -0.1532 -0.2492
12010SOL    HW137224   3.264   6.052   3.654 -0.4458 -0.4428 -2.3907
12010SOL    HW237225   3.332   5.937   3.582  0.3439 -1.6807  0.2110
12011SOL     OW37226   2.915   4.821   4.684  0.2765  0.0064  0.2311
12011SOL    HW137227   2.829   4.781   4.692  0.4903 -0.5529 -0.2523
12011SOL    HW237228   2.901   4.899   4.630 -0.2032  0.8150  1.4695
12012SOL     OW37229   7.507   8.261   3.852 -0.0606  0.0932  0.1672
12012SOL    HW137230   7.573   8.272   3.783  0.8988  0.3855  1.0988
12012SOL    HW237231   7.424   8.272   3.807  0.5612  1.0896 -0.8091
12013SOL     OW37232   2.990   1.020   2.808 -0.3498  0.1739  0.3339
12013SOL    HW137233   2.979   0.926   2.797  0.0094  0.1311  0.3223
12013SOL    HW237234   3.023   1.030   2.898  1.0846  0.1624 -0.1684
12014SOL     OW37235   5.670   6.689   3.786 -0.3022  0.1802  0.2630
12014SOL    HW137236   5.615   6.713   3.711 -1.1894 -0.8767  0.5611
12014SOL    HW237237   5.724   6.617   3.754 -0.8328 -0.4135  0.6953
12015SOL     OW37238   6.117   6.552   1.617  0.4142  1.0187  0.2887
12015SOL    HW137239   6.206   6.531   1.590  0.6246  0.0321  1.6127
12015SOL    HW237240   6.120   6.644   1.643  1.4176  0.6530  1.6099
12016SOL     OW37241   7.522   8.472   2.014 -0.1593  0.1115 -0.7396
12016SOL    HW137242   7.591   8.522   1.970  0.8380 -0.8829 -0.3695
12016SOL    HW237243   7.562   8.443   2.096 -1.0734 -0.3578 -0.4435
12017SOL     OW37244   1.529   2.345   2.652 -0.2089 -0.3229 -0.4530
12017SOL    HW137245   1.448   2.375   2.695 -0.2570  0.6343 -1.1759
12017SOL    HW237246   1.515   2.364   2.560  0.9486  0.0927 -0.5517
12018SOL     OW37247   8.197   5.677   5.431  0.6761  0.5562  0.0191
12018SOL    HW137248   8.215   5.648   5.520  3.0092  2.4313  0.2574
12018SOL    HW237249   8.156   5.763   5.441  1.3062  0.9507 -0.7049
12019SOL     OW37250   1.490   1.699   5.351  0.2658 -0.5492 -0.4157
12019SOL    HW137251   1.557   1.707   5.283  1.1505 -0.9080  0.3879
12019SOL    HW237252   1.422   1.645   5.311  0.0562  0.4888 -1.5287
12020SOL     OW37253   5.890   1.680   4.940  0.4220  0.0850 -0.5498
12020SOL    HW137254   5.819   1.640   4.990 -2.1140  3.1007 -1.3573
12020SOL    HW237255   5.961   1.690   5.003 -1.6396  1.2447  1.8192
12021SOL     OW37256   3.170   6.691   7.012 -0.1234 -0.6594 -0.0635
12021SOL    HW137257   3.148   6.600   6.992 -1.2121 -0.7187  1.2509
12021SOL    HW237258   3.257   6.686   7.052 -1.0262 -1.4535  1.9964
12022SOL     OW37259   2.332   8.232   5.978  0.0926 -0.0945  0.0767
12022SOL    HW137260   2.395   8.161   5.989 -0.1674 -0.1840  1.0773
12022SOL    HW237261   2.377   8.310   6.011 -1.0651 -0.5495  2.9994
12023SOL     OW37262   6.771   6.906   6.172 -0.8265  0.3101 -0.2961
12023SOL    HW137263   6.689   6.856   6.172  0.9237 -2.8027  1.0703
12023SOL    HW237264   6.790   6.920   6.265  0.0239  1.3916 -0.6131
12024SOL     OW37265   1.687   0.310   2.955  0.1650 -0.0137 -0.1112
12024SOL    HW137266   1.602   0.333   2.990  0.8236 -2.0369  3.2089
12024SOL    HW237267   1.749   0.362   3.005  1.0090  0.9533 -2.0345
12025SOL     OW37268   3.085   1.344   5.020  0.6147  0.1921  0.2659
12025SOL    HW137269   3.006   1.303   5.055  0.2516  0.6560 -0.0004
12025SOL    HW237270   3.062   1.436   5.009  0.7039  0.0608 -1.2339
12026SOL     OW37271   0.560   5.174   8.302 -0.3160 -0.4948 -0.5929
12026SOL    HW137272   0.542   5.202   8.391 -0.9333 -2.6498  0.0251
12026SOL    HW237273   0.654   5.154   8.302 -0.2218 -0.0601 -0.5651
12027SOL     OW37274   6.743   2.609   6.734 -0.2775  0.6889  0.2013
12027SOL    HW137275   6.821   2.624   6.787 -0.3856  1.3279  0.1833
12027SOL    HW237276   6.770   2.544   6.669  0.5227  1.6293 -0.4241
12028SOL     OW37277   6.741   1.052   2.723  0.2527 -0.3098  0.5381
12028SOL    HW137278   6.805   1.112   2.685 -0.0924  0.0435  0.5153
12028SOL    HW237279   6.767   1.044   2.815  0.6353 -0.5714  0.4103
12029SOL     OW37280   1.515   3.159   1.379 -0.3652  0.2675  0.3330
12029SOL    HW137281   1.463   3.079   1.393  1.1715 -0.7773  0.3351
12029SOL    HW237282   1.455   3.230   1.400 -1.8258 -0.8737  0.2192
12030SOL     OW37283   2.917   6.089   1.852 -0.0964 -0.0759  0.1943
12030SOL    HW137284   2.875   6.078   1.937 -1.9453  2.8445 -0.1779
12030SOL    HW237285   2.849   6.067   1.788  0.4126  0.2531 -0.4777
12031SOL     OW37286   7.143   2.220   3.179 -0.0141  0.3015 -0.0662
12031SOL    HW137287   7.189   2.273   3.244  0.1054 -0.4204  0.4475
12031SOL    HW237288   7.066   2.187   3.225 -0.0490 -0.0290 -0.3579
12032SOL     OW37289   3.880   2.445   6.163  0.0615  0.4740 -0.4080
12032SOL    HW137290   3.951   2.444   6.228 -0.9016  2.2026  0.7686
12032SOL    HW237291   3.806   2.404   6.207 -0.3572  0.8596 -0.7429
12033SOL     OW37292   7.037   5.052   5.955  0.3047 -0.6539  0.2731
12033SOL    HW137293   7.116   5.050   6.008  0.8065 -1.5034 -0.4703
12033SOL    HW237294   7.062   5.009   5.873 -0.7579 -0.3911 -0.2084
12034SOL     OW37295   5.040   0.824   4.352  0.0718 -0.5244 -0.5847
12034SOL    HW137296   5.058   0.854   4.441 -0.1125 -2.8184  0.2904
12034SOL    HW237297   5.127   0.802   4.317  0.0309 -0.9514 -0.4324
12035SOL     OW37298   0.825   1.751   8.291  0.3030 -0.2558 -0.3565
12035SOL    HW137299   0.784   1.756   8.377 -1.0821 -0.0661 -0.9949
12035SOL    HW237300   0.906   1.702   8.306 -0.8497 -1.9471  0.7391
12036SOL     OW37301   8.118   3.199   4.712 -0.4636 -0.0518  0.2660
12036SOL    HW137302   8.180   3.229   4.778  0.2110 -0.3646 -0.2195
12036SOL    HW237303   8.046   3.262   4.717 -0.1362  0.2838  0.8676
12037SOL     OW37304   7.124   3.436   6.251  0.6715  0.4902  0.6320
12037SOL    HW137305   7.057   3.369   6.264 -0.9722  2.1273  0.9607
12037SOL    HW237306   7.116   3.460   6.159  1.1326  0.3665  0.5593
12038SOL     OW37307   1.596   0.849   5.488 -0.2263 -0.0603  0.0415
12038SOL    HW137308   1.549   0.840   5.571  0.9143 -1.9343  0.5481
12038SOL    HW237309   1.593   0.942   5.469 -1.1266  0.3269  1.8287
12039SOL     OW37310   7.351   7.831   6.173  0.0770  0.0738  0.0492
12039SOL    HW137311   7.320   7.862   6.088 -0.8307  1.2267  0.7668
12039SOL    HW237312   7.414   7.897   6.202 -0.3199  0.1866  0.6792
12040SOL     OW37313   1.074   6.104   7.559  0.0154 -0.1883  0.2195
12040SOL    HW137314   0.997   6.064   7.519  0.3021 -1.0858  0.5439
12040SOL    HW237315   1.041   6.145   7.639  0.0965 -1.8203  1.1194
12041SOL     OW37316   2.983   4.401   1.444  0.1736 -0.4459 -0.5152
12041SOL    HW137317   3.078   4.390   1.452  0.1839  0.3258  0.6944
12041SOL    HW237318   2.947   4.355   1.520 -0.1226  2.5659  1.3513
12042SOL     OW37319   8.070   5.457   8.157  1.0599 -0.3887  0.1108
12042SOL    HW137320   8.019   5.479   8.079  0.7661  2.2353  0.9137
12042SOL    HW237321   8.014   5.485   8.230  1.1193 -3.1824  1.3465
12043SOL     OW37322   7.756   3.817   7.177 -0.0773  1.0023 -0.7016
12043SOL    HW137323   7.733   3.854   7.263 -0.1010 -1.0947  0.2784
12043SOL    HW237324   7.825   3.874   7.144  0.2682  1.6004  0.9443
12044SOL     OW37325   2.340   6.709   7.924  0.1577  0.1184 -0.2999
12044SOL    HW137326   2.428   6.726   7.891  0.6719 -1.9680 -0.1338
12044SOL    HW237327   2.351   6.692   8.017 -0.6956  1.6056  0.1023
12045SOL     OW37328   6.589   5.443   2.708  0.0072 -0.2568  0.2134
12045SOL    HW137329   6.594   5.483   2.794  2.2572 -2.8056  1.4444
12045SOL    HW237330   6.514   5.384   2.713 -0.8585  0.7891 -0.1870
12046SOL     OW37331   7.925   7.751   4.544 -0.7663 -0.1333  0.0954
12046SOL    HW137332   7.836   7.736   4.576 -0.7538  0.0244  0.2080
12046SOL    HW237333   7.927   7.844   4.521 -0.9175 -0.3422 -0.8191
12047SOL     OW37334   2.720   0.204   1.782  0.5610 -0.2398 -0.0506
12047SOL    HW137335   2.814   0.207   1.800  0.8446 -3.0946 -0.5436
12047SOL    HW237336   2.678   0.221   1.866  1.5594 -0.6038  0.5304
12048SOL     OW37337   0.319   4.937   4.623  0.0120 -0.4247 -0.4481
12048SOL    HW137338   0.332   5.015   4.676  0.4470  0.5454 -1.9145
12048SOL    HW237339   0.229   4.944   4.592 -0.0375 -0.6602 -0.3613
12049SOL     OW37340   0.468   0.174   5.466  0.5324 -0.0100 -0.0723
12049SOL    HW137341   0.446   0.254   5.419 -1.4179 -1.6955 -2.3182
12049SOL    HW237342   0.531   0.130   5.409 -1.4792 -1.8635 -1.0026
12050SOL     OW37343   7.032   2.843   0.627 -0.3213  0.2822  0.6501
12050SOL    HW137344   6.942   2.860   0.600 -0.6469 -1.6308  0.3755
12050SOL    HW237345   7.024   2.788   0.705  0.5665 -0.9210 -0.0626
12051SOL     OW37346   7.061   1.071   4.617  0.4119  0.2882 -0.2935
12051SOL    HW137347   6.968   1.072   4.641  0.4469  0.0425 -0.1470
12051SOL    HW237348   7.076   1.157   4.577  0.3054  0.6473  0.4120
12052SOL     OW37349   2.894   8.127   4.080 -0.2787  0.0148  0.2908
12052SOL    HW137350   2.867   8.153   4.168  1.0492  0.4442  0.5835
12052SOL    HW237351   2.820   8.074   4.047 -0.5216 -0.6881  1.8866
12053SOL     OW37352   1.503   8.416   0.805  0.7205 -0.1988  0.0217
12053SOL    HW137353   1.437   8.347   0.814  1.1284 -0.5357  0.4459
12053SOL    HW237354   1.495   8.468   0.884  2.0646 -1.2139  0.8603
12054SOL     OW37355   6.189   5.536   6.057 -0.0422 -0.0044  0.5100
12054SOL    HW137356   6.258   5.478   6.026  1.4748  0.7973  2.2176
12054SOL    HW237357   6.207   5.620   6.014 -0.5042 -0.0266  0.2677
12055SOL     OW37358   4.674   3.892   3.586  0.0178  0.5034  0.1615
12055SOL    HW137359   4.633   3.977   3.598 -0.4558  0.1880  0.8354
12055SOL    HW237360   4.722   3.877   3.668 -0.0578  0.0347  0.1227
12056SOL     OW37361   0.687   7.098   4.940 -0.3752  0.1925 -0.2064
12056SOL    HW137362   0.755   7.076   5.004 -0.2420 -1.4325 -0.8728
12056SOL    HW237363   0.684   7.023   4.881 -0.2514  1.7692 -2.3463
12057SOL     OW37364   1.877   0.125   2.626 -0.2786 -0.1056 -0.0584
12057SOL    HW137365   1.818   0.057   2.658 -2.8155  1.5845 -0.8139
12057SOL    HW237366   1.876   0.114   2.531  0.1000  0.3274 -0.1157
12058SOL     OW37367   5.048   7.222   0.269 -0.5960  0.3306  0.3826
12058SOL    HW137368   5.070   7.129   0.273  2.4429  0.9130 -0.3977
12058SOL    HW237369   4.967   7.225   0.219  0.1325 -1.8010 -1.0478
12059SOL     OW37370   8.448   0.656   3.185 -0.1509 -0.2602  0.1861
12059SOL    HW137371   8.404   0.647   3.101  1.9663 -0.6589 -0.9253
12059SOL    HW237372   8.471   0.567   3.210 -1.7534 -0.2872  1.8109
12060SOL     OW37373   4.216   6.972   8.310  0.4226  0.2324  0.0703
12060SOL    HW137374   4.270   6.980   8.232  0.5204 -0.5479  0.0441
12060SOL    HW237375   4.206   7.061   8.342  1.7198  0.4057  0.0636
12061SOL     OW37376   0.555   4.438   7.780  0.0014 -0.1210  0.0563
12061SOL    HW137377   0.498   4.402   7.711 -0.6129  1.2186 -0.1769
12061SOL    HW237378   0.618   4.491   7.733  0.3482 -0.1774  0.4541
12062SOL     OW37379   7.792   0.163   5.280 -0.3426  0.0324  0.5074
12062SOL    HW137380   7.827   0.082   5.316  1.0405  0.1296 -0.5286
12062SOL    HW237381   7.771   0.142   5.189  1.5776  1.1909 -0.2815
12063SOL     OW37382   6.598   1.690   3.121 -0.1657 -0.4798  0.2298
12063SOL    HW137383   6.582   1.691   3.026 -0.0343 -1.1739  0.1953
12063SOL    HW237384   6.687   1.656   3.130 -0.1716 -0.3992  0.5973
12064SOL     OW37385   4.094   5.302   2.543 -0.2605 -0.1919  0.5532
12064SOL    HW137386   4.144   5.370   2.588 -1.8520 -0.6407  3.2275
12064SOL    HW237387   4.116   5.221   2.589  2.2831 -1.8686 -3.1067
12065SOL     OW37388   1.122   6.393   0.352  0.5016 -0.2917 -0.3462
12065SOL    HW137389   1.206   6.438   0.360  0.3745 -0.2871  1.0813
12065SOL    HW237390   1.069   6.453   0.299  1.4663 -0.4407 -1.5515
12066SOL     OW37391   5.044   1.054   1.415  0.5082 -0.3002 -0.5181
12066SOL    HW137392   5.116   1.036   1.354  1.8535  0.0468  0.9211
12066SOL    HW237393   5.080   1.037   1.502 -1.3277 -0.6590  0.2284
12067SOL     OW37394   7.301   1.639   5.175  0.0705  0.1738 -0.1958
12067SOL    HW137395   7.340   1.595   5.251  0.9872 -2.2639 -1.9395
12067SOL    HW237396   7.237   1.699   5.213  0.8632 -0.5254  2.5083
12068SOL     OW37397   6.755   1.168   3.641  0.1062  0.3211  0.1135
12068SOL    HW137398   6.741   1.202   3.553  1.5267  2.4847  0.6525
12068SOL    HW237399   6.806   1.235   3.685 -0.1216 -0.9357  2.4559
12069SOL     OW37400   0.496   6.985   1.642  0.3365 -0.5632  0.2581
12069SOL    HW137401   0.474   6.962   1.552 -1.4386 -0.9732  0.7523
12069SOL    HW237402   0.582   6.944   1.657  0.7594 -0.2998 -1.2920
12070SOL     OW37403   0.345   5.714   6.487 -0.5724 -0.0282 -0.0600
12070SOL    HW137404   0.353   5.703   6.582  0.4150  0.5125 -0.0658
12070SOL    HW237405   0.315   5.629   6.455  0.6757 -0.7311  0.5627
12071SOL     OW37406   3.261   8.594   0.640  0.0670  0.1914 -0.3730
12071SOL    HW137407   3.228   8.658   0.702 -1.8683 -0.4817 -0.6360
12071SOL    HW237408   3.262   8.511   0.688  1.5152  0.1786 -0.3592
12072SOL     OW37409   2.450   6.858   6.748 -0.2175 -0.2527  0.1677
12072SOL    HW137410   2.369   6.892   6.786 -0.8470  1.1568 -2.2864
12072SOL    HW237411   2.435   6.764   6.741 -1.0314 -0.2097  1.1053
12073SOL     OW37412   2.480   3.573   5.628  0.6918  0.0530  0.5166
12073SOL    HW137413   2.570   3.583   5.659  0.4457  1.1256  0.9402
12073SOL    HW237414   2.430   3.550   5.706  0.8918 -2.7637 -0.0782
12074SOL     OW37415   4.144   5.524   0.146 -0.1859 -0.0226  0.0298
12074SOL    HW137416   4.129   5.588   0.077  0.1129 -0.4352 -0.4149
12074SOL    HW237417   4.061   5.477   0.154  0.5689 -1.8187 -1.9391
12075SOL     OW37418   7.923   2.461   8.368 -0.0884  0.4524  0.4324
12075SOL    HW137419   7.935   2.375   8.408 -1.4936  0.2535  0.4737
12075SOL    HW237420   8.007   2.480   8.328  0.7585 -0.1980  1.8347
12076SOL     OW37421   1.684   8.515   2.536 -0.2866 -0.7278  0.2941
12076SOL    HW137422   1.614   8.570   2.502  1.1266  0.8176 -0.2707
12076SOL    HW237423   1.665   8.506   2.629 -0.7615  0.3977  0.3125
12077SOL     OW37424   5.471   0.731   7.030 -0.3362  0.2268 -0.1192
12077SOL    HW137425   5.389   0.747   7.076  0.5433 -0.5926  1.8841
12077SOL    HW237426   5.514   0.816   7.026 -0.2721  0.2513  0.9372
12078SOL     OW37427   7.688   0.751   8.474  0.0969  0.2606 -0.5710
12078SOL    HW137428   7.741   0.718   8.547  0.6678  0.6844 -0.7873
12078SOL    HW237429   7.705   0.845   8.473  0.1662  0.2433 -1.3089
12079SOL     OW37430   5.269   4.138   1.981  0.3661  0.1837 -0.0997
12079SOL    HW137431   5.306   4.193   2.050  0.1956  1.7590 -1.2035
12079SOL    HW237432   5.337   4.072   1.963  0.1794 -0.6411  1.9206
12080SOL     OW37433   1.339   6.711   2.239 -0.1997  0.2815 -0.3468
12080SOL    HW137434   1.251   6.686   2.211 -0.1287  0.2808 -0.5742
12080SOL    HW237435   1.348   6.673   2.326 -0.1113 -0.4540 -0.6673
12081SOL     OW37436   2.947   3.381   3.805 -0.0578 -0.0922  0.5551
12081SOL    HW137437   2.906   3.316   3.748  0.9764 -1.1022  0.9299
12081SOL    HW237438   2.976   3.332   3.882  3.3229  0.2068 -0.3819
12082SOL     OW37439   1.404   7.774   8.339  0.0313 -0.1481 -0.7334
12082SOL    HW137440   1.408   7.679   8.339 -0.7306 -0.2122 -2.6935
12082SOL    HW237441   1.311   7.795   8.337  0.2046  0.5914 -2.2806
12083SOL     OW37442   1.472   2.450   1.677  0.1033  0.3357  0.3575
12083SOL    HW137443   1.444   2.497   1.755 -1.5723 -1.1654  0.7174
12083SOL    HW237444   1.483   2.359   1.706  1.9961  0.2174 -0.5926
12084SOL     OW37445   0.532   6.076   0.729 -0.2264  0.4422 -0.4009
12084SOL    HW137446   0.612   6.128   0.739 -0.4102  0.3389  2.2056
12084SOL    HW237447   0.463   6.131   0.768 -1.2377  0.0368 -1.5627
12085SOL     OW37448   5.846   0.617   2.595 -0.5023  0.0273  0.1094
12085SOL    HW137449   5.881   0.528   2.587 -0.3083 -0.0353  1.4875
12085SOL    HW237450   5.766   0.616   2.543 -1.1924 -1.3367  1.1328
12086SOL     OW37451   2.422   1.112   4.058 -0.2912  0.3793 -0.0769
12086SOL    HW137452   2.495   1.050   4.054  0.7902  1.5118  1.3868
12086SOL    HW237453   2.452   1.188   4.009 -0.6863  0.6808  0.1465
12087SOL     OW37454   4.150   5.391   6.253  0.4614 -0.6223 -0.3450
12087SOL    HW137455   4.066   5.359   6.287  0.2719  0.0895 -0.1213
12087SOL    HW237456   4.156   5.481   6.285  1.8613 -1.0248  0.6118
12088SOL     OW37457   0.969   4.756   4.680 -0.3081 -0.0479 -0.8668
12088SOL    HW137458   1.047   4.701   4.683 -1.3393 -1.5572  0.5213
12088SOL    HW237459   0.936   4.746   4.590 -0.5858 -1.9509 -0.5972
12089SOL     OW37460   6.895   5.697   8.591  0.3069  0.2631 -0.4219
12089SOL    HW137461   6.977   5.693   8.641  0.9381  1.2804 -1.3175
12089SOL    HW237462   6.835   5.640   8.638  1.4230 -0.2130  0.4700
12090SOL     OW37463   6.257   4.045   1.319 -0.1060 -0.5066  0.9418
12090SOL    HW137464   6.230   3.957   1.344  0.4155 -1.1087 -0.5118
12090SOL    HW237465   6.324   4.068   1.384  0.2102 -1.4338  0.9589
12091SOL     OW37466   7.115   7.201   6.325 -0.5210 -0.3453  0.0354
12091SOL    HW137467   7.044   7.207   6.262 -0.0270 -0.5009 -0.5428
12091SOL    HW237468   7.188   7.161   6.277 -0.5492 -1.7198  1.0518
12092SOL     OW37469   4.268   4.905   2.344 -0.2900 -0.5089 -0.1812
12092SOL    HW137470   4.291   4.935   2.432  3.2073 -2.2058 -0.3300
12092SOL    HW237471   4.316   4.964   2.285 -1.0412 -0.5627 -0.8592
12093SOL     OW37472   1.024   0.862   0.174 -0.2958  0.0519 -0.0243
12093SOL    HW137473   0.938   0.901   0.191  0.4488  1.2189  1.2465
12093SOL    HW237474   1.021   0.777   0.220 -1.7506 -1.3076 -2.4084
12094SOL     OW37475   5.048   7.181   6.027 -0.5367 -0.2653  0.1040
12094SOL    HW137476   5.024   7.092   6.003 -0.7822 -0.2951  0.4419
12094SOL    HW237477   5.081   7.174   6.117  3.4065 -0.6757 -1.1864
12095SOL     OW37478   3.084   2.525   1.330  0.0747 -0.1554 -0.2832
12095SOL    HW137479   3.070   2.613   1.294 -0.3408  1.0539  2.5816
12095SOL    HW237480   2.997   2.496   1.357  0.3449 -1.1130 -0.4006
12096SOL     OW37481   7.184   1.638   2.920  0.6939  0.1954 -0.4020
12096SOL    HW137482   7.201   1.553   2.961 -0.0636 -0.0315 -0.5401
12096SOL    HW237483   7.180   1.699   2.994 -2.4398 -0.4851  0.1341
12097SOL     OW37484   5.916   1.925   1.426  0.1010  0.0318  0.1730
12097SOL    HW137485   5.957   1.839   1.437 -0.2427 -0.1512  0.0566
12097SOL    HW237486   5.822   1.908   1.435 -0.0456  0.2129 -0.9690
12098SOL     OW37487   5.821   0.859   2.130 -0.1061  0.1740 -0.3199
12098SOL    HW137488   5.753   0.910   2.174 -0.9651 -1.0869 -0.1420
12098SOL    HW237489   5.775   0.782   2.095  1.1667 -0.5474 -0.4638
12099SOL     OW37490   8.008   3.042   5.765 -0.3225  0.0689 -0.0797
12099SOL    HW137491   8.058   3.057   5.845  0.9841 -2.3854 -0.3699
12099SOL    HW237492   8.063   3.077   5.695 -1.5540  2.4034  0.0141
12100SOL     OW37493   2.737   6.919   6.886 -0.0280 -0.6737 -0.4136
12100SOL    HW137494   2.799   6.881   6.823 -0.4139 -0.8069 -0.7142
12100SOL    HW237495   2.653   6.879   6.864  0.1214 -2.0518  1.2807
12101SOL     OW37496   0.004   1.716   6.842  0.8047  0.0298 -0.4193
12101SOL    HW137497  -0.069   1.714   6.903  0.0974  2.3585 -1.0883
12101SOL    HW237498  -0.013   1.644   6.781 -1.1919  0.7536 -0.7982
12102SOL     OW37499   3.391   3.389   2.998 -0.4387  0.0396 -0.0233
12102SOL    HW137500   3.396   3.410   3.091  0.6996  1.1355 -0.2922
12102SOL    HW237501   3.298   3.380   2.980 -0.6507 -0.9321  1.3599
12103SOL     OW37502   2.416   4.884   2.945 -0.2500  0.0815  0.7438
12103SOL    HW137503   2.510   4.898   2.933 -0.3794  0.2789 -0.1328
12103SOL    HW237504   2.406   4.869   3.039  0.9818 -2.5077  0.5545
12104SOL     OW37505   7.668   3.484   8.069 -0.0199  0.3694  0.5513
12104SOL    HW137506   7.627   3.487   7.983 -0.5379 -2.4537  0.6052
12104SOL    HW237507   7.632   3.406   8.111 -0.1921  1.9172  3.5897
12105SOL     OW37508   3.878   1.916   4.919 -0.0722 -0.1284 -0.5294
12105SOL    HW137509   3.812   1.904   4.987 -0.3993 -1.6755 -1.0832
12105SOL    HW237510   3.888   2.011   4.912  0.4370  0.0678  2.0805
12106SOL     OW37511   4.861   8.181   5.821  0.1709  0.0678 -0.0667
12106SOL    HW137512   4.779   8.230   5.816  0.7088  1.0709  0.6858
12106SOL    HW237513   4.892   8.176   5.730 -1.8448 -2.3616 -0.7352
12107SOL     OW37514   8.100   3.400   2.715  0.0800 -0.2616 -0.4369
12107SOL    HW137515   8.107   3.339   2.788 -0.6697  1.6658  1.3065
12107SOL    HW237516   8.149   3.477   2.743 -1.2151  0.9803 -1.4437
12108SOL     OW37517   1.948   0.295   3.353 -0.6355  0.2017 -0.0844
12108SOL    HW137518   1.966   0.254   3.438 -1.8609  2.1550  1.1940
12108SOL    HW237519   2.034   0.306   3.313 -0.0559 -0.9391  0.7895
12109SOL     OW37520   1.272   7.006   3.697 -0.0996  0.5059  0.2027
12109SOL    HW137521   1.259   6.920   3.737 -2.3907  0.6334 -0.1077
12109SOL    HW237522   1.252   6.994   3.605  1.3137  1.0301 -0.2006
12110SOL     OW37523   7.018   3.645   2.377  0.0317  0.3381 -0.0578
12110SOL    HW137524   7.022   3.741   2.381 -1.7158  0.4675 -0.5960
12110SOL    HW237525   7.008   3.618   2.468 -2.5027  0.9150 -0.0752
12111SOL     OW37526   4.460   2.827   5.881 -0.0738 -0.3659 -0.2067
12111SOL    HW137527   4.543   2.852   5.921  1.1504 -1.7869 -1.6938
12111SOL    HW237528   4.484   2.793   5.795 -2.2101 -0.8264 -0.6917
12112SOL     OW37529   7.072   5.970   1.115 -0.2735 -0.0227  0.2386
12112SOL    HW137530   6.998   6.029   1.130  0.2672  0.5139  0.8681
12112SOL    HW237531   7.149   6.024   1.134  0.2339 -0.9365  0.8238
12113SOL     OW37532   0.677   7.341   8.297  0.2968  0.1126  0.2356
12113SOL    HW137533   0.762   7.384   8.304  0.1312  0.3225  1.1103
12113SOL    HW237534   0.676   7.302   8.209  0.1991  2.4774 -0.9021
12114SOL     OW37535   0.675   0.223   8.421 -0.2627  0.1230  0.1773
12114SOL    HW137536   0.752   0.174   8.390  0.6391  0.1914  2.1681
12114SOL    HW237537   0.702   0.314   8.416 -0.9972  0.3014 -1.0385
12115SOL     OW37538   1.771   0.767   4.896  0.4944  0.5435 -0.1032
12115SOL    HW137539   1.855   0.808   4.918 -0.4038  2.7489 -0.4875
12115SOL    HW237540   1.748   0.804   4.810 -0.5177 -0.6246 -0.3709
12116SOL     OW37541   5.744   2.785   8.419 -0.2460  0.2719  0.4639
12116SOL    HW137542   5.823   2.813   8.373  0.3124 -0.2938  1.0584
12116SOL    HW237543   5.750   2.826   8.505 -1.3977  1.5066 -0.0035
12117SOL     OW37544   4.266   8.597   7.211 -0.3653 -0.6569 -0.3413
12117SOL    HW137545   4.265   8.535   7.138 -1.7139 -1.6664  0.4700
12117SOL    HW237546   4.187   8.649   7.198 -1.1774 -1.5182  0.9012
12118SOL     OW37547   8.521   0.424   4.738 -0.1379 -0.2061  0.4589
12118SOL    HW137548   8.499   0.410   4.646  0.8853 -1.4399  0.3832
12118SOL    HW237549   8.436   0.439   4.781 -0.9975 -2.7097 -0.1717
12119SOL     OW37550   1.220   6.053   3.782  0.3294  0.3785  0.3829
12119SOL    HW137551   1.274   6.109   3.837 -1.1535  1.5903  0.6852
12119SOL    HW237552   1.242   6.080   3.692  0.2696  0.8409  0.5023
12120SOL     OW37553   3.722   3.522   2.419  0.7155 -0.3530 -0.9489
12120SOL    HW137554   3.768   3.523   2.335 -0.8289 -1.6341 -1.8674
12120SOL    HW237555   3.790   3.500   2.483  1.6648 -0.7368 -2.0495
12121SOL     OW37556   8.287   5.434   0.428 -0.4253 -0.3320  0.6615
12121SOL    HW137557   8.220   5.368   0.446 -1.0136  0.7251  2.7136
12121SOL    HW237558   8.248   5.493   0.365 -1.6662  0.5084  2.1461
12122SOL     OW37559   2.831   5.187   4.910  0.1197  0.2008 -0.3653
12122SOL    HW137560   2.786   5.268   4.933 -0.1843  0.1333 -0.6926
12122SOL    HW237561   2.787   5.158   4.829  2.5633  1.5965 -2.3429
12123SOL     OW37562   1.502   2.000   3.639  0.7222  0.3340  0.4476
12123SOL    HW137563   1.520   2.094   3.627  0.5704  0.1833 -1.1685
12123SOL    HW237564   1.587   1.958   3.624  0.7490  0.1921  0.9826
12124SOL     OW37565   6.990   7.471   4.208  0.6104 -0.5552 -0.1447
12124SOL    HW137566   6.932   7.532   4.162  2.3964  0.1665 -1.6019
12124SOL    HW237567   7.026   7.415   4.139  2.9042  0.1504  0.3794
12125SOL     OW37568   4.354   2.352   2.362 -0.3008  0.0122  0.1167
12125SOL    HW137569   4.285   2.367   2.298  1.3191 -1.0063 -1.9771
12125SOL    HW237570   4.412   2.288   2.321  2.4621  1.5591  1.3277
12126SOL     OW37571   2.505   6.263   0.328 -0.0225 -0.1336 -0.3144
12126SOL    HW137572   2.491   6.223   0.414  1.1424  1.3646  0.6384
12126SOL    HW237573   2.480   6.196   0.265 -0.8008 -1.3114  1.1966
12127SOL     OW37574   7.168   4.714   6.696  0.4190  0.1788 -0.3910
12127SOL    HW137575   7.205   4.627   6.681  4.5182  1.1943  2.1696
12127SOL    HW237576   7.229   4.774   6.653  0.6020  1.9085  2.0255
12128SOL     OW37577   8.437   4.968   4.801  1.0064 -0.0404  0.4341
12128SOL    HW137578   8.503   4.917   4.849  1.8021 -0.4006 -0.9793
12128SOL    HW237579   8.356   4.919   4.812  1.3808 -0.6217  0.6314
12129SOL     OW37580   5.022   3.044   3.147  0.3081  0.2644  0.3847
12129SOL    HW137581   4.963   3.030   3.072  0.3835  0.1807  0.3409
12129SOL    HW237582   5.058   2.957   3.166  0.9478  0.4320 -0.0294
12130SOL     OW37583   3.403   2.086   6.738  0.0873 -0.5028  0.0774
12130SOL    HW137584   3.314   2.051   6.728  0.4193 -1.3824  0.1446
12130SOL    HW237585   3.443   2.073   6.653  0.0499  0.2183 -0.0578
12131SOL     OW37586   3.505   8.598   5.771 -0.3930  0.3124 -0.2724
12131SOL    HW137587   3.426   8.618   5.821  0.5441  0.3186  1.2971
12131SOL    HW237588   3.512   8.668   5.707 -1.0536  0.9289  0.3128
12132SOL     OW37589   0.592   3.621   6.380 -0.5922  0.3624  0.2402
12132SOL    HW137590   0.587   3.526   6.392  0.8291  0.3506  0.9828
12132SOL    HW237591   0.679   3.636   6.344 -1.3989  1.2730 -1.4457
12133SOL     OW37592   4.569   6.020   8.487 -0.2904  0.0187 -0.3800
12133SOL    HW137593   4.613   5.937   8.470 -1.3240 -0.5088 -0.5179
12133SOL    HW237594   4.640   6.081   8.507  0.3561 -1.5731  2.8135
12134SOL     OW37595   3.187   7.558   0.602  0.2364  0.1290  0.0265
12134SOL    HW137596   3.130   7.514   0.539 -0.6923 -0.5489  1.3048
12134SOL    HW237597   3.127   7.599   0.665  1.1424  0.0270  0.9903
12135SOL     OW37598   7.478   6.166   7.605 -0.6665  0.1404  0.1172
12135SOL    HW137599   7.496   6.117   7.524  1.6012 -0.6274  1.0101
12135SOL    HW237600   7.384   6.155   7.619 -0.8281 -1.0423 -1.5674
12136SOL     OW37601   2.140   4.160   3.680 -0.6902 -0.1487 -0.0409
12136SOL    HW137602   2.055   4.202   3.676 -0.5920  0.2576  1.5831
12136SOL    HW237603   2.126   4.083   3.736  0.2564  0.6134  1.2931
12137SOL     OW37604   6.570   7.040   7.368 -0.3551 -0.0904  0.0572
12137SOL    HW137605   6.638   6.983   7.333  0.6422  0.4982  0.9813
12137SOL    HW237606   6.600   7.129   7.346 -2.1647  0.1120 -1.8732
12138SOL     OW37607   8.353   8.495   7.158  0.2228 -0.3623 -0.1220
12138SOL    HW137608   8.364   8.409   7.199 -0.1383 -1.4064 -2.0794
12138SOL    HW237609   8.403   8.489   7.076  2.2424  2.1767  0.7859
12139SOL     OW37610   3.833   7.054   3.922 -0.0737  0.3900  0.1005
12139SOL    HW137611   3.825   6.968   3.882  1.8130  0.4691 -0.5516
12139SOL    HW237612   3.746   7.073   3.957 -0.8879 -1.1441 -1.0029
12140SOL     OW37613   3.060   0.129   6.682 -0.0544 -0.3783 -0.6036
12140SOL    HW137614   3.044   0.211   6.728  0.4531 -1.2503  1.2418
12140SOL    HW237615   3.141   0.143   6.634  0.5539 -0.0603  0.4729
12141SOL     OW37616   3.310   3.881   0.664  0.0778  0.0972 -0.5239
12141SOL    HW137617   3.323   3.817   0.734 -0.0281 -1.0889 -1.5464
12141SOL    HW237618   3.388   3.936   0.666  0.6034 -0.6484 -0.2051
12142SOL     OW37619   2.510   2.187   5.256  0.2866  0.3546  0.3515
12142SOL    HW137620   2.455   2.208   5.181 -0.2354 -0.7336  0.4132
12142SOL    HW237621   2.455   2.132   5.312  1.7398 -1.6796 -0.0991
12143SOL     OW37622   5.425   8.600   0.460  0.6017  0.2944 -0.2343
12143SOL    HW137623   5.380   8.656   0.523  0.7126 -0.8599  0.9065
12143SOL    HW237624   5.449   8.521   0.510 -0.8871 -1.4683 -2.1058
12144SOL     OW37625   2.419   6.702   2.472  0.0182  0.3353 -0.1203
12144SOL    HW137626   2.394   6.680   2.382 -0.0456 -0.6204  0.1158
12144SOL    HW237627   2.496   6.648   2.489  0.9425  1.6214 -0.0964
12145SOL     OW37628   0.127   1.682   2.249 -0.3270  0.5141 -0.4127
12145SOL    HW137629   0.066   1.615   2.218 -0.9543  0.4351  0.9247
12145SOL    HW237630   0.075   1.761   2.258 -0.3679  0.3481  1.1217
12146SOL     OW37631   2.672   1.598   5.262  0.5507  0.1195  0.6845
12146SOL    HW137632   2.767   1.597   5.275  0.9272  0.1051 -1.5853
12146SOL    HW237633   2.648   1.505   5.255  0.1731  0.0770  2.2486
12147SOL     OW37634   1.956   1.141   4.240 -0.1782  0.3906  0.5766
12147SOL    HW137635   1.978   1.234   4.242  0.3285  0.2722  0.6576
12147SOL    HW237636   1.968   1.112   4.331 -0.3102  0.2422  0.5461
12148SOL     OW37637   4.081   2.756   1.850 -0.1813  0.2878  0.0252
12148SOL    HW137638   4.081   2.735   1.943 -0.2346  0.7499  0.1331
12148SOL    HW237639   4.017   2.695   1.812  0.5434 -0.5638  0.1236
12149SOL     OW37640   3.708   7.312   8.498  0.6464 -0.5240  0.6125
12149SOL    HW137641   3.715   7.310   8.593  1.4788  1.2095  0.6300
12149SOL    HW237642   3.615   7.318   8.480  0.5750  1.0769  1.4139
12150SOL     OW37643   7.675   2.418   7.139  0.0640  0.4680 -0.4568
12150SOL    HW137644   7.662   2.330   7.174  1.6635  0.0888 -0.7306
12150SOL    HW237645   7.609   2.427   7.070 -0.4558 -0.3099 -0.0747
12151SOL     OW37646   2.591   4.018   2.351  0.1961  0.0472  0.5331
12151SOL    HW137647   2.579   3.948   2.415  0.3460 -0.1570  0.3397
12151SOL    HW237648   2.502   4.046   2.329  0.0703 -1.0220 -0.4128
12152SOL     OW37649   7.118   0.447   6.551 -0.3252  0.1594 -0.0459
12152SOL    HW137650   7.152   0.402   6.629 -2.5599 -0.8013  0.4600
12152SOL    HW237651   7.065   0.381   6.507 -1.7891  1.6213 -0.5709
12153SOL     OW37652   3.041   1.632   7.808  0.2709  0.0147  0.3029
12153SOL    HW137653   3.093   1.557   7.779  0.5796 -1.9225  5.0179
12153SOL    HW237654   3.105   1.701   7.824  1.0474 -1.1226  2.4897
12154SOL     OW37655   3.739   4.472   6.834  0.0873  0.6648  0.2659
12154SOL    HW137656   3.645   4.485   6.844 -0.2637 -0.3094 -1.4953
12154SOL    HW237657   3.774   4.485   6.923 -1.9457 -0.9721  1.4063
12155SOL     OW37658   4.328   5.022   1.734 -0.2020  0.1422 -0.2241
12155SOL    HW137659   4.407   4.968   1.739  0.3844  0.9803 -0.1606
12155SOL    HW237660   4.258   4.965   1.765  0.6917 -0.0137  1.6366
12156SOL     OW37661   3.892   4.757   8.391 -0.6481 -0.5288  0.4708
12156SOL    HW137662   3.810   4.728   8.431 -0.6140 -0.3712  0.6569
12156SOL    HW237663   3.865   4.824   8.329 -0.9925 -2.4942 -1.6518
12157SOL     OW37664   2.433   3.773   3.302  0.6014 -0.4671  0.3244
12157SOL    HW137665   2.499   3.782   3.370  0.1252 -2.6407  1.1371
12157SOL    HW237666   2.367   3.715   3.339 -1.7379  1.4579 -0.5126
12158SOL     OW37667   6.573   4.465   2.631  0.4204 -0.0036  0.1650
12158SOL    HW137668   6.578   4.375   2.663 -1.4496  0.4525  2.0120
12158SOL    HW237669   6.480   4.478   2.609  0.9561  0.9682 -1.7794
12159SOL     OW37670   5.303   5.642   8.272  0.3376  0.1829 -0.0751
12159SOL    HW137671   5.269   5.589   8.200  0.2597  0.5190 -0.2828
12159SOL    HW237672   5.228   5.657   8.329  0.2660  0.4574 -0.2476
12160SOL     OW37673   8.542   5.600   7.265 -0.0133  0.0969 -0.3411
12160SOL    HW137674   8.571   5.510   7.252  0.2847  0.3021 -1.1274
12160SOL    HW237675   8.455   5.603   7.227 -0.3364 -0.0466  0.3695
12161SOL     OW37676   2.673   2.777   4.124 -0.3335 -0.1533  0.2310
12161SOL    HW137677   2.682   2.683   4.137  0.4042  0.0149  0.9969
12161SOL    HW237678   2.763   2.811   4.129 -0.4584  0.4658 -1.1229
12162SOL     OW37679   0.103   0.812   7.014 -0.0368  0.1968 -0.4304
12162SOL    HW137680   0.043   0.884   7.031  0.7446  0.4202  1.7722
12162SOL    HW237681   0.118   0.814   6.920 -0.7870  2.2992 -0.5536
12163SOL     OW37682   6.207   1.608   3.084 -0.2646 -0.2532 -0.3358
12163SOL    HW137683   6.157   1.559   3.149 -0.9255 -1.9583 -2.0208
12163SOL    HW237684   6.186   1.700   3.102 -0.9696 -0.7113  1.3843
12164SOL     OW37685   6.724   4.810   7.118 -0.2184 -0.7083 -0.7090
12164SOL    HW137686   6.665   4.824   7.192  0.2895 -0.2916 -0.3767
12164SOL    HW237687   6.727   4.895   7.074  0.6688 -0.5320 -0.3237
12165SOL     OW37688   7.499   5.109   7.827 -0.3079  0.3457 -0.1619
12165SOL    HW137689   7.448   5.087   7.749  0.9545 -1.2222 -0.5878
12165SOL    HW237690   7.589   5.113   7.796  0.1671  0.1509  1.1464
12166SOL     OW37691   0.173   2.752   1.281  0.0298  0.6138 -0.6742
12166SOL    HW137692   0.218   2.775   1.362 -0.1271  1.9748 -0.9518
12166SOL    HW237693   0.086   2.722   1.310  0.0936  0.7626 -0.3225
12167SOL     OW37694   3.862   4.339   5.623 -0.3600 -0.0526 -0.0501
12167SOL    HW137695   3.908   4.417   5.655  0.5533 -0.0167 -1.3789
12167SOL    HW237696   3.885   4.270   5.686 -0.0913  0.4371  0.3981
12168SOL     OW37697   4.854   6.011   1.783  0.8924 -0.4459  0.3629
12168SOL    HW137698   4.884   6.093   1.744 -0.0869  0.3721  1.2583
12168SOL    HW237699   4.888   5.943   1.726 -0.6471  0.6792 -2.0348
12169SOL     OW37700   6.322   1.992   1.471 -0.4293  0.7444 -0.8878
12169SOL    HW137701   6.314   1.902   1.440  1.6913  0.4776 -0.7842
12169SOL    HW237702   6.237   2.011   1.511 -0.2882 -1.9562  0.9856
12170SOL     OW37703   7.196   5.171   3.475  0.4018 -0.7778 -0.1169
12170SOL    HW137704   7.127   5.200   3.414 -0.6666 -1.0117  0.9566
12170SOL    HW237705   7.175   5.214   3.557  1.3122 -1.1941  0.3455
12171SOL     OW37706   5.123   6.428   4.938  0.4765 -0.2711 -0.2759
12171SOL    HW137707   5.065   6.455   5.010  0.1229 -0.0207 -0.6534
12171SOL    HW237708   5.199   6.390   4.982 -0.6006 -1.9403  0.2346
12172SOL     OW37709   2.825   4.177   5.014  0.3129  0.5249  0.1741
12172SOL    HW137710   2.914   4.144   4.997  0.2592  0.7528 -0.5967
12172SOL    HW237711   2.823   4.262   4.969 -0.2120  0.6315  0.4051
12173SOL     OW37712   2.822   1.417   1.475  0.4774 -0.4252 -0.1482
12173SOL    HW137713   2.804   1.347   1.538  0.8825 -0.0876  0.3484
12173SOL    HW237714   2.772   1.392   1.397  2.5268 -2.5742 -0.9012
12174SOL     OW37715   3.130   6.392   4.485 -0.0402 -0.1471  0.2474
12174SOL    HW137716   3.125   6.325   4.553  2.0354 -0.1759  0.4346
12174SOL    HW237717   3.129   6.475   4.533 -1.2240 -0.0485  0.0987
12175SOL     OW37718   7.065   5.533   7.134  0.0523 -0.1228  0.0936
12175SOL    HW137719   7.051   5.580   7.052  0.9025 -0.8524 -0.4947
12175SOL    HW237720   7.107   5.596   7.191 -2.4075  1.0519  0.7293
12176SOL     OW37721   2.917   8.204   1.807 -0.3930  0.6432  0.1423
12176SOL    HW137722   3.004   8.240   1.791  0.1944 -0.3518  0.9819
12176SOL    HW237723   2.929   8.109   1.805 -1.5926  0.4854 -0.4152
12177SOL     OW37724   8.077   2.802   0.692 -0.8939  0.3753 -0.7233
12177SOL    HW137725   8.005   2.778   0.750 -0.7890  1.1482 -0.2553
12177SOL    HW237726   8.046   2.880   0.645 -0.2198  0.9768 -0.2013
12178SOL     OW37727   4.821   4.679   4.027  0.3257 -0.4313 -0.3172
12178SOL    HW137728   4.760   4.741   4.068  0.1704 -0.8265  0.0547
12178SOL    HW237729   4.801   4.595   4.068  1.5361 -0.4619  0.2541
12179SOL     OW37730   0.722   4.502   2.072 -0.3219 -0.2413  0.2819
12179SOL    HW137731   0.763   4.435   2.017  0.5776  0.1896  0.4182
12179SOL    HW237732   0.794   4.540   2.121 -0.5481  1.9894 -0.9847
12180SOL     OW37733   4.194   8.313   5.253 -0.1454 -0.2678 -0.0280
12180SOL    HW137734   4.268   8.372   5.237 -0.8958  0.5431 -0.5702
12180SOL    HW237735   4.119   8.371   5.261 -0.9190 -1.1587 -0.7053
12181SOL     OW37736   4.181   6.295   4.138  0.2747  0.5690 -0.3882
12181SOL    HW137737   4.154   6.299   4.229 -1.6148  1.2673 -0.9324
12181SOL    HW237738   4.167   6.384   4.105  1.8503  0.5746 -1.1343
12182SOL     OW37739   5.080   6.709   8.204 -0.0669 -0.3623  0.1405
12182SOL    HW137740   5.072   6.730   8.111 -0.2641  0.6567  0.3860
12182SOL    HW237741   4.992   6.685   8.231 -0.5934  2.0538  0.7062
12183SOL     OW37742   8.272   5.523   7.389  0.3337  0.2891 -0.5075
12183SOL    HW137743   8.238   5.533   7.479  0.0458 -1.8166 -0.3175
12183SOL    HW237744   8.201   5.554   7.334  0.4609  1.4889 -0.0307
12184SOL     OW37745   2.074   2.137   5.884  0.4534 -0.0533 -0.2692
12184SOL    HW137746   2.156   2.171   5.920 -1.1385  1.9121  1.7507
12184SOL    HW237747   2.033   2.213   5.843 -1.3362 -0.4474  0.7015
12185SOL     OW37748   6.081   6.660   4.367 -0.1838  0.3254 -0.9160
12185SOL    HW137749   6.012   6.685   4.428 -0.9638  0.0015 -1.6414
12185SOL    HW237750   6.092   6.736   4.310  0.9868  0.8664 -0.0078
12186SOL     OW37751   7.358   2.133   5.376 -0.1052 -0.0501 -0.2194
12186SOL    HW137752   7.338   2.138   5.282  1.0721  0.8535 -0.4555
12186SOL    HW237753   7.380   2.223   5.400 -2.1555  0.0726  1.3724
12187SOL     OW37754   0.422   4.505   8.014 -0.4163  0.2607 -0.0319
12187SOL    HW137755   0.457   4.486   7.927  0.1986 -0.5445  0.3681
12187SOL    HW237756   0.375   4.588   8.004  1.5732  1.3862 -0.6194
12188SOL     OW37757   7.564   5.054   1.824  0.5581  1.0663 -0.4026
12188SOL    HW137758   7.645   5.004   1.834  0.0327  0.3739  0.6670
12188SOL    HW237759   7.592   5.145   1.813  1.4635  1.0101  1.1948
12189SOL     OW37760   7.808   1.347   0.670  0.7591  0.0199  0.1707
12189SOL    HW137761   7.809   1.272   0.729  1.3724 -0.2809 -0.2087
12189SOL    HW237762   7.733   1.399   0.698 -0.3813 -1.3159 -0.2720
12190SOL     OW37763   1.643   7.536   2.250 -0.6583  0.1320  0.2045
12190SOL    HW137764   1.563   7.532   2.197 -0.6197 -1.1682  0.2086
12190SOL    HW237765   1.625   7.480   2.325  0.6033 -0.9886 -0.2894
12191SOL     OW37766   3.836   3.552   6.490 -0.1711 -0.0042  0.5527
12191SOL    HW137767   3.750   3.581   6.522 -0.0606  0.7988  0.1279
12191SOL    HW237768   3.829   3.456   6.490 -1.4267  0.0571 -0.4090
12192SOL     OW37769   8.211   6.545   8.040  0.1515 -0.4073 -0.5034
12192SOL    HW137770   8.168   6.616   8.088  0.1193 -1.4211  1.0553
12192SOL    HW237771   8.155   6.469   8.055  0.7995 -1.0248 -1.1549
12193SOL     OW37772   4.034   7.729   0.664 -0.2982 -0.0101 -0.3395
12193SOL    HW137773   4.076   7.647   0.635 -0.5589 -0.1088 -0.4352
12193SOL    HW237774   4.092   7.798   0.630  0.4607 -0.1743  0.5762
12194SOL     OW37775   7.730   4.046   1.455 -0.3401  0.1987 -0.4440
12194SOL    HW137776   7.636   4.039   1.442 -0.5252  0.6253  0.5428
12194SOL    HW237777   7.758   3.957   1.477 -0.6549  0.2264  0.0855
12195SOL     OW37778   2.282   1.641   0.461 -0.5028  0.2144 -0.0607
12195SOL    HW137779   2.333   1.610   0.535  0.2890  1.8533  0.1382
12195SOL    HW237780   2.278   1.567   0.401 -0.2020 -0.7831  1.1231
12196SOL     OW37781   2.252   2.291   1.819  0.4738 -0.2292 -0.0318
12196SOL    HW137782   2.187   2.220   1.824 -0.3127  0.5429  1.3098
12196SOL    HW237783   2.232   2.347   1.895  1.6550  0.9375 -0.5495
12197SOL     OW37784   2.932   2.867   2.009 -0.3297 -0.5706  0.0718
12197SOL    HW137785   2.896   2.819   1.934 -0.6019  0.2851 -0.3606
12197SOL    HW237786   2.998   2.924   1.970  0.1043 -0.6975  0.6028
12198SOL     OW37787   0.486   6.936   3.694 -0.1283 -0.2551 -0.2004
12198SOL    HW137788   0.394   6.915   3.677 -0.4059  0.5030  0.2930
12198SOL    HW237789   0.493   7.029   3.672 -0.0561  0.3075  1.9875
12199SOL     OW37790   2.906   5.052   6.194  0.5169 -0.2372  0.2759
12199SOL    HW137791   2.867   5.118   6.252  2.3238  1.4925 -0.3608
12199SOL    HW237792   2.832   4.999   6.165 -1.2770  2.2451 -0.0750
12200SOL     OW37793   2.782   3.583   4.985 -0.0043 -0.4539 -0.0059
12200SOL    HW137794   2.791   3.518   5.055 -0.0632  0.2350  0.6550
12200SOL    HW237795   2.849   3.649   5.004 -0.1812 -0.1326 -0.4551
12201SOL     OW37796   8.035   1.363   1.275 -0.4466 -0.1299  0.0142
12201SOL    HW137797   7.977   1.343   1.201 -1.0889  1.2200  0.1395
12201SOL    HW237798   7.995   1.318   1.349 -1.0784  0.4017  0.0011
12202SOL     OW37799   6.567   1.967   3.476  0.0227 -1.2189  0.8413
12202SOL    HW137800   6.528   2.052   3.456  0.9523 -0.6772  1.2691
12202SOL    HW237801   6.516   1.905   3.424 -0.2845 -0.3353  0.0549
12203SOL     OW37802   4.192   8.110   2.289  0.0396 -0.1583  0.0095
12203SOL    HW137803   4.171   8.201   2.271 -0.1364  0.2258  1.9495
12203SOL    HW237804   4.174   8.064   2.208 -0.3755  1.4501 -0.8371
12204SOL     OW37805   0.961   2.569   4.442 -0.1083  0.7740  0.0599
12204SOL    HW137806   0.925   2.631   4.378  1.2819  0.3919 -1.1492
12204SOL    HW237807   0.887   2.514   4.467 -1.0565  2.0282  0.0932
12205SOL     OW37808   5.742   2.095   7.661  0.2980  0.6356 -0.5634
12205SOL    HW137809   5.661   2.106   7.711 -0.2199 -2.9721 -0.2953
12205SOL    HW237810   5.722   2.133   7.575 -0.7851  1.9156  0.2081
12206SOL     OW37811   0.215   5.807   7.990  0.2583 -0.2964 -0.2703
12206SOL    HW137812   0.122   5.824   7.978 -0.0150 -0.9653  0.7468
12206SOL    HW237813   0.228   5.719   7.954  0.0445 -1.0723  1.4553
12207SOL     OW37814   5.422   4.025   7.194 -0.2996  0.8062 -0.0358
12207SOL    HW137815   5.465   3.993   7.274 -1.1379  2.7208  1.2528
12207SOL    HW237816   5.493   4.030   7.130  0.4657 -0.4532  0.6692
12208SOL     OW37817   7.060   6.985   6.479 -0.2263 -0.9101 -0.4474
12208SOL    HW137818   7.126   6.995   6.547 -0.6741 -0.6082 -0.0435
12208SOL    HW237819   7.071   7.063   6.424 -0.6154 -0.5558 -0.0415
12209SOL     OW37820   0.072   7.793   6.640  0.4945 -0.2888 -0.1009
12209SOL    HW137821  -0.017   7.786   6.675 -0.4249  0.2231 -2.2059
12209SOL    HW237822   0.082   7.716   6.584  0.7029  0.5597 -1.2614
12210SOL     OW37823   2.965   5.935   8.189 -0.1432 -0.2286 -0.0497
12210SOL    HW137824   3.045   5.886   8.209 -0.5302 -1.6553 -1.7138
12210SOL    HW237825   2.985   5.982   8.108  0.0075  1.9550  1.2015
12211SOL     OW37826   6.644   6.107   1.755  0.6269  0.3784  0.0344
12211SOL    HW137827   6.564   6.062   1.728  0.5729  0.2308  0.4232
12211SOL    HW237828   6.618   6.198   1.765  0.9326  0.6512 -1.5528
12212SOL     OW37829   6.516   0.826   1.998  0.9412 -0.4423  0.5539
12212SOL    HW137830   6.482   0.797   2.082  0.5887 -0.1516  0.5157
12212SOL    HW237831   6.448   0.802   1.935  0.6812  0.3695  0.5095
12213SOL     OW37832   1.913   4.654   1.712 -0.3395 -0.2745  0.3409
12213SOL    HW137833   1.937   4.744   1.736 -0.7762  0.2242 -0.9764
12213SOL    HW237834   1.985   4.624   1.657  0.0047 -0.9051  1.1098
12214SOL     OW37835   7.379   6.794   1.192  0.1225 -0.1756  0.0597
12214SOL    HW137836   7.450   6.835   1.144  0.4361 -1.9688 -1.0661
12214SOL    HW237837   7.422   6.742   1.260 -0.1873 -0.2478  0.2037
12215SOL     OW37838   0.475   0.958   2.938  0.2508 -0.5426  0.1810
12215SOL    HW137839   0.399   0.901   2.923  0.0520  0.2265 -2.0329
12215SOL    HW237840   0.519   0.962   2.854  1.1315  1.3619  0.6837
12216SOL     OW37841   6.836   4.260   2.294 -0.4428 -0.0213  0.0556
12216SOL    HW137842   6.866   4.348   2.317  0.5143  0.1231 -1.6154
12216SOL    HW237843   6.907   4.224   2.241 -0.9428 -1.7110  0.4780
12217SOL     OW37844   4.625   2.025   6.907 -0.0954  0.9974 -0.3036
12217SOL    HW137845   4.631   2.117   6.881  2.5649  1.4359  1.4634
12217SOL    HW237846   4.707   1.986   6.877  0.6602  0.2565  2.4382
12218SOL     OW37847   3.498   8.544   4.291  0.0076  0.4966 -0.2545
12218SOL    HW137848   3.420   8.600   4.287  0.9320  1.8479 -0.1565
12218SOL    HW237849   3.490   8.485   4.216 -1.4942  0.0483  0.2099
12219SOL     OW37850   6.334   3.256   3.280  0.2741  0.3113 -0.4298
12219SOL    HW137851   6.303   3.298   3.360  1.4557 -0.7650  0.6244
12219SOL    HW237852   6.306   3.316   3.210 -1.9035  0.6494  0.6295
12220SOL     OW37853   1.559   1.605   3.955 -0.3542  0.0673 -0.0688
12220SOL    HW137854   1.653   1.619   3.940 -0.1892 -1.5204 -0.6581
12220SOL    HW237855   1.522   1.693   3.954  1.0339  0.6809 -0.4664
12221SOL     OW37856   2.871   3.411   6.950  0.2487 -0.4173  0.5782
12221SOL    HW137857   2.936   3.374   6.890 -0.5224 -0.3137 -0.3492
12221SOL    HW237858   2.923   3.455   7.018  1.1953  1.9646 -1.5450
12222SOL     OW37859   4.233   1.197   3.286 -0.7052 -0.0772 -0.5347
12222SOL    HW137860   4.258   1.204   3.378 -0.8639 -1.1277 -0.4059
12222SOL    HW237861   4.194   1.110   3.278 -1.2577  0.2423 -1.4623
12223SOL     OW37862   4.616   5.278   4.048  0.8876  0.4165 -0.5365
12223SOL    HW137863   4.592   5.201   3.997  1.9932  1.2335 -2.4050
12223SOL    HW237864   4.712   5.282   4.042  1.1550  0.1915  2.2316
12224SOL     OW37865   3.878   3.434   1.604 -0.2818  0.0866  0.3559
12224SOL    HW137866   3.876   3.470   1.692  0.1791 -0.6605  0.6764
12224SOL    HW237867   3.911   3.505   1.549 -0.1444  0.4076  0.8532
12225SOL     OW37868   2.802   2.889   0.807  0.4824  0.4551 -0.1383
12225SOL    HW137869   2.778   2.873   0.898  1.6291 -1.4797 -0.1085
12225SOL    HW237870   2.898   2.893   0.808  0.5197  0.1172 -1.2844
12226SOL     OW37871   0.986   5.064   8.050  0.1578 -0.4568  0.0857
12226SOL    HW137872   0.998   5.025   8.137 -2.5503 -2.2467 -0.2249
12226SOL    HW237873   0.918   5.010   8.009 -1.5695  2.7183 -1.6214
12227SOL     OW37874   0.365   2.053   1.488  0.1132 -0.2926 -0.4693
12227SOL    HW137875   0.330   2.105   1.416  2.1262  1.6421 -0.1466
12227SOL    HW237876   0.298   2.061   1.557 -0.8188 -0.3687 -1.3392
12228SOL     OW37877   7.206   5.738   7.303 -0.0453 -0.2000  0.1299
12228SOL    HW137878   7.285   5.787   7.281  0.5518 -1.3374 -0.3392
12228SOL    HW237879   7.203   5.739   7.399  0.4121  0.0450  0.1469
12229SOL     OW37880   6.368   0.777   7.803 -0.3154 -0.3825  0.4056
12229SOL    HW137881   6.342   0.702   7.750 -1.1295 -0.7959  1.3611
12229SOL    HW237882   6.313   0.772   7.880  0.4647  0.5188  1.0457
12230SOL     OW37883   0.045   4.251   8.293  0.0660 -0.3112  0.4731
12230SOL    HW137884   0.028   4.294   8.209  1.8610  1.2261  0.8333
12230SOL    HW237885   0.053   4.158   8.272 -1.4436 -0.2103 -0.7270
12231SOL     OW37886   2.262   6.882   8.244  0.1633 -0.5501  0.2580
12231SOL    HW137887   2.179   6.915   8.277 -0.6388  0.3032 -2.3849
12231SOL    HW237888   2.327   6.912   8.308 -1.3299  0.3857  1.4024
12232SOL     OW37889   7.765   7.880   2.257  0.3005 -0.5902 -0.0758
12232SOL    HW137890   7.740   7.914   2.171 -0.8691 -0.7278  0.1820
12232SOL    HW237891   7.753   7.785   2.249  0.2077 -0.6062  0.2258
12233SOL     OW37892   4.088   1.137   1.913  0.9995 -0.6764 -0.0729
12233SOL    HW137893   4.042   1.174   1.838  1.3409 -1.0086 -0.4558
12233SOL    HW237894   4.051   1.049   1.923  0.4994 -0.4012  0.5571
12234SOL     OW37895   4.302   5.601   4.298 -0.0792 -0.1461 -0.2365
12234SOL    HW137896   4.294   5.507   4.309 -0.7142 -0.2309 -1.2598
12234SOL    HW237897   4.253   5.620   4.218 -0.9260  1.1971  0.5490
12235SOL     OW37898   2.910   4.487   8.235 -0.0997 -0.4314 -0.2765
12235SOL    HW137899   2.902   4.451   8.323  1.1260 -0.0693  0.0089
12235SOL    HW237900   2.981   4.551   8.242 -1.2881  1.0173 -1.1029
12236SOL     OW37901   3.190   5.176   8.243 -0.3164  0.6542  0.5441
12236SOL    HW137902   3.179   5.099   8.299 -0.4972 -0.4469 -0.9613
12236SOL    HW237903   3.139   5.244   8.287 -1.0859 -0.3853  1.3222
12237SOL     OW37904   0.137   2.458   2.104  0.0250 -0.1822  0.6308
12237SOL    HW137905   0.185   2.480   2.184 -0.3914 -0.0721  0.8509
12237SOL    HW237906   0.045   2.456   2.131  0.0285 -2.2528  0.6483
12238SOL     OW37907   7.719   6.370   4.660  0.2730 -0.1339  0.3653
12238SOL    HW137908   7.760   6.290   4.690  0.0020 -1.0892 -1.6531
12238SOL    HW237909   7.787   6.437   4.668  1.1878 -1.0162  0.0623
12239SOL     OW37910   7.052   5.696   6.879  0.1024 -0.0227  0.1271
12239SOL    HW137911   7.019   5.765   6.821 -0.2292 -1.0756 -0.9889
12239SOL    HW237912   7.091   5.632   6.819  2.1791  0.1045  1.2566
12240SOL     OW37913   8.574   5.025   7.791 -0.1152  0.2792  0.1571
12240SOL    HW137914   8.636   4.966   7.834  1.7356  0.6745 -1.7864
12240SOL    HW237915   8.541   5.081   7.862  0.5926 -0.9165  1.4886
12241SOL     OW37916   1.267   4.973   8.553  0.3364 -0.0313  0.2458
12241SOL    HW137917   1.189   4.917   8.554  0.2983  0.0202  0.2089
12241SOL    HW237918   1.233   5.060   8.533  0.1769  0.3387  1.9694
12242SOL     OW37919   1.073   0.375   4.795  0.1514  0.1116 -0.0948
12242SOL    HW137920   1.132   0.323   4.849 -0.6732 -0.1473  0.5871
12242SOL    HW237921   0.985   0.349   4.824 -0.2865  0.9514 -0.6323
12243SOL     OW37922   7.789   4.897   5.279  0.3937  0.2032  0.4196
12243SOL    HW137923   7.855   4.951   5.322 -0.3766 -0.1784  2.1572
12243SOL    HW237924   7.709   4.911   5.330 -0.3846 -0.8567 -0.4465
12244SOL     OW37925   2.784   2.737   5.013  0.1118  0.1134 -0.4511
12244SOL    HW137926   2.789   2.832   5.023  0.2110 -0.0267  1.0297
12244SOL    HW237927   2.713   2.723   4.951  1.8459  1.2374 -2.8466
12245SOL     OW37928   3.242   3.826   2.066 -0.6658 -0.3678  0.2561
12245SOL    HW137929   3.170   3.792   2.014 -1.5295 -1.8052  2.2918
12245SOL    HW237930   3.251   3.765   2.139  0.1118  1.8153  2.1204
12246SOL     OW37931   5.714   0.725   4.963  0.3331 -0.5771  0.6506
12246SOL    HW137932   5.732   0.765   5.048 -1.8297  1.0513  0.4454
12246SOL    HW237933   5.750   0.788   4.900  0.6150 -1.0457  0.3414
12247SOL     OW37934   0.396   4.024   5.812  0.5337 -0.1637 -0.6957
12247SOL    HW137935   0.343   3.952   5.848  0.2451  0.7665  0.8393
12247SOL    HW237936   0.333   4.095   5.799  1.1730  0.5212 -0.1028
12248SOL     OW37937   0.346   8.362   5.646  0.0378  0.3375 -0.2882
12248SOL    HW137938   0.380   8.287   5.597  0.5294 -0.7167  1.5593
12248SOL    HW237939   0.252   8.343   5.657 -0.4875  1.4776 -2.2953
12249SOL     OW37940   2.103   1.808   1.290 -0.5019 -0.7349  0.3252
12249SOL    HW137941   2.124   1.732   1.344 -1.3055 -0.9970  0.2746
12249SOL    HW237942   2.027   1.847   1.332 -1.1140 -0.9225 -0.5838
12250SOL     OW37943   3.831   3.620   1.395 -0.5902  0.3192  0.2909
12250SOL    HW137944   3.788   3.589   1.315  0.9341 -1.5834  0.1385
12250SOL    HW237945   3.916   3.653   1.367 -0.2969  0.2368  1.0389
12251SOL     OW37946   6.466   6.061   1.513  0.5043  0.1725 -0.2596
12251SOL    HW137947   6.430   6.099   1.432  1.1388 -1.0046 -1.1169
12251SOL    HW237948   6.455   5.966   1.501  0.2067  0.0049  1.2378
12252SOL     OW37949   6.645   4.501   6.133  0.1936  0.3654  0.1058
12252SOL    HW137950   6.698   4.574   6.101  1.4173 -0.1774  0.8154
12252SOL    HW237951   6.680   4.482   6.220 -0.4209 -0.7593  0.1301
12253SOL     OW37952   7.160   4.331   7.883  0.4435 -0.2356  0.2952
12253SOL    HW137953   7.096   4.391   7.922  1.6315  1.7804 -0.7020
12253SOL    HW237954   7.152   4.344   7.789  1.2214 -1.1444  0.0843
12254SOL     OW37955   0.235   4.795   3.196  0.5456 -0.0255  0.1711
12254SOL    HW137956   0.178   4.769   3.124  1.3092  0.6863 -0.7029
12254SOL    HW237957   0.188   4.868   3.237 -0.2715 -0.9360  0.9244
12255SOL     OW37958   6.173   6.773   4.961  0.1868 -0.5478  0.0443
12255SOL    HW137959   6.209   6.695   4.917 -0.9492 -1.0540 -0.0228
12255SOL    HW237960   6.107   6.806   4.900 -0.2648 -0.3117  0.6597
12256SOL     OW37961   5.594   8.283   5.512  0.2502  0.0126 -0.8566
12256SOL    HW137962   5.673   8.230   5.510  0.0857 -0.3082  0.3493
12256SOL    HW237963   5.553   8.269   5.427  0.6932 -1.0579 -0.9091
12257SOL     OW37964   3.452   0.370   8.226  0.1724 -0.1397  0.0321
12257SOL    HW137965   3.533   0.321   8.212 -0.6602 -1.4597 -0.2863
12257SOL    HW237966   3.468   0.455   8.185  0.9710 -0.8161 -1.1055
12258SOL     OW37967   4.321   8.196   7.301 -0.1687  0.6602 -0.4242
12258SOL    HW137968   4.277   8.207   7.216 -2.3511 -0.1361  0.5156
12258SOL    HW237969   4.260   8.141   7.352  2.6192 -1.8028  0.5274
12259SOL     OW37970   5.558   6.244   3.442 -0.7140 -0.4005 -0.0368
12259SOL    HW137971   5.490   6.298   3.480  0.3804  0.6011  0.5615
12259SOL    HW237972   5.520   6.210   3.361 -2.3551 -0.9158  0.9166
12260SOL     OW37973   8.313   6.354   3.259  0.9336  0.5927 -0.8505
12260SOL    HW137974   8.302   6.324   3.169 -0.2775  2.3667 -1.3398
12260SOL    HW237975   8.260   6.293   3.311  0.2248  0.5974 -1.5506
12261SOL     OW37976   6.476   2.741   7.780  0.0953 -0.5318  0.1564
12261SOL    HW137977   6.512   2.827   7.802 -0.8661  0.6602 -2.5250
12261SOL    HW237978   6.552   2.683   7.782  0.9928  0.6103  0.8479
12262SOL     OW37979   2.246   2.168   6.615 -0.4497  0.2416 -0.6407
12262SOL    HW137980   2.294   2.248   6.593 -0.5915  0.1114 -1.4780
12262SOL    HW237981   2.156   2.187   6.591 -0.9823  0.7199  1.5359
12263SOL     OW37982   0.122   4.110   0.534 -0.2556  0.1833  0.2324
12263SOL    HW137983   0.207   4.090   0.495 -0.4531 -0.9957  0.3595
12263SOL    HW237984   0.131   4.082   0.626 -0.8861 -0.2988  0.1573
12264SOL     OW37985   2.900   2.720   2.981  0.1437  0.2568  0.5240
12264SOL    HW137986   2.849   2.800   2.990 -0.1652  0.2193 -0.6378
12264SOL    HW237987   2.881   2.670   3.060 -0.0827  1.0919  1.0059
12265SOL     OW37988   0.615   4.225   7.058 -0.6428 -0.4804  0.5806
12265SOL    HW137989   0.553   4.229   6.986 -0.4045 -0.8060  0.3494
12265SOL    HW237990   0.619   4.132   7.081 -0.0787 -0.4969  0.4410
12266SOL     OW37991   8.056   4.462   7.175 -0.5194 -0.5772  0.6342
12266SOL    HW137992   8.111   4.431   7.103  0.2242 -0.7691  1.2721
12266SOL    HW237993   7.971   4.423   7.159 -0.3668 -0.5986 -0.1519
12267SOL     OW37994   4.885   2.493   4.409  0.0448  0.4203 -0.1420
12267SOL    HW137995   4.929   2.450   4.482 -0.2232 -0.2559 -0.3729
12267SOL    HW237996   4.943   2.565   4.384  0.6057  0.0469  0.0943
12268SOL     OW37997   1.789   6.419   1.119 -0.5545 -0.1462  0.2442
12268SOL    HW137998   1.702   6.432   1.156 -1.0347  0.7436 -1.1311
12268SOL    HW237999   1.812   6.504   1.080 -0.2335 -1.0901 -1.7561
12269SOL     OW38000   7.270   4.595   1.522 -0.2286 -0.7825 -0.1717
12269SOL    HW138001   7.337   4.569   1.458 -0.2203  0.8540 -0.8619
12269SOL    HW238002   7.309   4.669   1.568 -1.0801 -0.6207  0.2956
12270SOL     OW38003   3.563   4.476   2.880 -0.0087  0.4429  0.1041
12270SOL    HW138004   3.558   4.531   2.802 -2.4703  1.6502  1.0251
12270SOL    HW238005   3.514   4.397   2.857 -1.6768  1.2572  0.7135
12271SOL     OW38006   7.781   3.766   0.238  0.0763 -0.0960 -0.4102
12271SOL    HW138007   7.776   3.710   0.161 -0.4530  0.4238 -0.7546
12271SOL    HW238008   7.757   3.853   0.207  1.6859  0.5094 -0.0604
12272SOL     OW38009   7.655   6.902   6.487  0.2999  0.1056  0.2677
12272SOL    HW138010   7.700   6.964   6.430  2.0993 -0.3058  1.1598
12272SOL    HW238011   7.685   6.924   6.575 -0.9139 -0.4995  0.8547
12273SOL     OW38012   1.721   7.750   6.040 -0.1111  0.3154 -0.5069
12273SOL    HW138013   1.806   7.795   6.042 -0.4996  1.0472  0.0820
12273SOL    HW238014   1.681   7.772   6.124 -1.1321  0.4665 -1.0246
12274SOL     OW38015   7.377   6.579   4.361 -0.4287 -0.0950 -0.1026
12274SOL    HW138016   7.456   6.627   4.336  1.8062 -1.5564  3.3465
12274SOL    HW238017   7.406   6.488   4.370 -1.9976 -0.4301  2.8369
12275SOL     OW38018   8.021   5.584   3.877 -0.3736 -0.0681  0.2952
12275SOL    HW138019   7.953   5.553   3.937  0.3187  1.8341  2.1943
12275SOL    HW238020   7.974   5.637   3.812 -0.7323  1.6492  1.8836
12276SOL     OW38021   1.444   3.520   2.145 -0.1067  0.2868  0.1251
12276SOL    HW138022   1.411   3.484   2.228  0.4192 -0.6060 -0.0416
12276SOL    HW238023   1.525   3.471   2.128  0.1405  0.9193 -0.5865
12277SOL     OW38024   2.293   7.392   0.406 -1.2976 -0.0211 -0.2501
12277SOL    HW138025   2.357   7.322   0.418 -1.3320 -0.4806 -2.4004
12277SOL    HW238026   2.292   7.438   0.490  0.2490 -1.3191  0.5331
12278SOL     OW38027   1.631   1.182   1.208 -0.2957 -0.0381 -0.2314
12278SOL    HW138028   1.655   1.115   1.271  0.4884 -1.1751 -1.6775
12278SOL    HW238029   1.631   1.264   1.258 -0.3185 -0.9756  1.3475
12279SOL     OW38030   5.461   5.027   1.847  0.7436 -0.1124  0.1425
12279SOL    HW138031   5.419   5.097   1.897  0.4528 -1.3726  1.7344
12279SOL    HW238032   5.506   5.072   1.776 -1.6911  1.4834 -0.5265
12280SOL     OW38033   6.555   3.130   1.283 -0.3967  0.1932  0.2807
12280SOL    HW138034   6.567   3.035   1.285  0.3330  0.1942 -1.8029
12280SOL    HW238035   6.461   3.142   1.296 -0.5793 -0.8515  0.0330
12281SOL     OW38036   8.195   1.373   0.030  0.1297  0.3662 -0.0204
12281SOL    HW138037   8.120   1.314   0.020  0.4038 -0.4427  2.1680
12281SOL    HW238038   8.193   1.399   0.123  1.8572  1.2976 -0.2035
12282SOL     OW38039   6.898   2.085   3.260 -0.3259 -0.1826 -0.2483
12282SOL    HW138040   6.822   2.114   3.310 -0.3409  0.3116 -0.5393
12282SOL    HW238041   6.861   2.035   3.187 -0.2550 -1.7775  0.7626
12283SOL     OW38042   7.516   2.178   5.026 -0.1776 -0.5859  0.1929
12283SOL    HW138043   7.587   2.134   5.073  0.2786 -0.9438 -0.8050
12283SOL    HW238044   7.535   2.272   5.037  1.5165 -0.6615 -1.5535
12284SOL     OW38045   3.203   3.960   0.972  0.5636 -0.0040  0.7830
12284SOL    HW138046   3.283   3.907   0.975  0.0219 -0.8269  1.2282
12284SOL    HW238047   3.195   3.987   0.881  0.0967 -1.9230  0.2009
12285SOL     OW38048   5.124   8.493   4.510  0.1207 -0.1502  0.3274
12285SOL    HW138049   5.201   8.477   4.456  0.0308  0.4264  0.0190
12285SOL    HW238050   5.142   8.578   4.552 -1.8299  1.7872 -2.4601
12286SOL     OW38051   5.618   5.953   4.862  0.3218 -0.4849  0.2013
12286SOL    HW138052   5.559   5.880   4.880 -0.6236 -0.2299 -1.5990
12286SOL    HW238053   5.565   6.014   4.810  1.4445  0.9369  0.6635
12287SOL     OW38054   0.202   6.037   2.178 -0.3206 -0.1076  0.3118
12287SOL    HW138055   0.258   6.094   2.126  0.0152 -1.2996 -0.6755
12287SOL    HW238056   0.206   6.074   2.266  1.7207  0.0737  0.1998
12288SOL     OW38057   1.533   0.816   2.847 -0.1903 -0.3965  0.2311
12288SOL    HW138058   1.571   0.904   2.849 -3.2522  1.0274  0.2294
12288SOL    HW238059   1.516   0.795   2.939  0.4009 -0.9861  0.2190
12289SOL     OW38060   4.857   1.297   7.971 -0.0572  0.1206 -0.0195
12289SOL    HW138061   4.829   1.206   7.964  0.1304  0.1056 -0.5962
12289SOL    HW238062   4.926   1.306   7.906 -0.1712  0.7146 -0.0600
12290SOL     OW38063   1.813   0.257   6.597 -0.7370 -0.3011 -0.5569
12290SOL    HW138064   1.760   0.181   6.572 -0.4439 -0.5041 -0.5691
12290SOL    HW238065   1.749   0.324   6.621 -1.0057 -1.1555  1.2641
12291SOL     OW38066   3.571   2.392   4.897 -0.0969 -0.0637  0.9534
12291SOL    HW138067   3.487   2.436   4.881 -0.1263 -0.9244 -1.6343
12291SOL    HW238068   3.637   2.456   4.871 -0.0504 -0.4409  0.1308
12292SOL     OW38069   6.692   1.586   1.922  0.0486 -0.5001 -0.5165
12292SOL    HW138070   6.783   1.557   1.923  1.0146  2.2252  0.3662
12292SOL    HW238071   6.653   1.546   2.000  0.3310 -1.9728 -1.0915
12293SOL     OW38072   1.264   7.616   2.353  0.1589  0.5090 -0.1716
12293SOL    HW138073   1.317   7.667   2.291 -1.4498  0.9373 -1.2564
12293SOL    HW238074   1.218   7.682   2.405  0.2664  0.1440  0.3947
12294SOL     OW38075   0.573   4.376   4.619  0.0182 -0.8333 -0.0577
12294SOL    HW138076   0.641   4.362   4.685 -0.4286 -1.1099  0.3493
12294SOL    HW238077   0.504   4.423   4.666 -0.1758 -0.7698 -0.4074
12295SOL     OW38078   7.609   5.631   7.175  0.0126 -1.2046  0.4241
12295SOL    HW138079   7.552   5.577   7.121 -0.3936  0.7796 -1.2807
12295SOL    HW238080   7.698   5.601   7.155  0.0839  0.7958 -3.1896
12296SOL     OW38081   4.655   8.070   4.420 -0.8036  0.1186 -0.5853
12296SOL    HW138082   4.693   8.126   4.354 -1.7883 -0.3459 -1.5878
12296SOL    HW238083   4.609   8.129   4.479  0.7489  0.6064  0.1809
12297SOL     OW38084   0.938   7.183   1.341  0.2334 -0.1449  0.5530
12297SOL    HW138085   0.868   7.122   1.364  0.5088 -0.9764 -0.6783
12297SOL    HW238086   0.897   7.269   1.343 -0.6948 -0.5700  0.3730
12298SOL     OW38087   7.290   5.341   1.728  0.0606  0.1202 -0.2478
12298SOL    HW138088   7.342   5.421   1.732  0.4707 -0.0716 -1.4691
12298SOL    HW238089   7.212   5.361   1.780  1.1466  0.5485  1.2667
12299SOL     OW38090   5.223   1.200   3.643 -0.2992  0.0036 -0.0796
12299SOL    HW138091   5.219   1.265   3.573 -3.4875  0.2686  0.2187
12299SOL    HW238092   5.213   1.251   3.723 -0.8429 -0.6841  0.2909
12300SOL     OW38093   8.410   7.267   1.743 -0.1988  0.3618  0.0736
12300SOL    HW138094   8.387   7.303   1.657 -1.9426 -1.0665 -0.1179
12300SOL    HW238095   8.503   7.286   1.753 -0.0351  0.8503 -1.9793
12301SOL     OW38096   3.187   7.453   8.356 -0.5073  0.1406  0.1313
12301SOL    HW138097   3.276   7.442   8.322  0.1731  1.8196  1.2064
12301SOL    HW238098   3.133   7.468   8.278  0.4945  0.9984 -0.4183
12302SOL     OW38099   4.120   6.547   5.255  0.3248  0.3402  0.5871
12302SOL    HW138100   4.139   6.530   5.348 -1.7235 -0.3395  0.9301
12302SOL    HW238101   4.110   6.642   5.250 -0.2563  0.3258  1.2383
12303SOL     OW38102   3.253   0.972   4.290 -0.3915  0.3761  1.0844
12303SOL    HW138103   3.243   0.954   4.197 -0.1242 -1.6247  1.3871
12303SOL    HW238104   3.186   1.037   4.310 -0.9356  0.2811 -0.3579
12304SOL     OW38105   7.248   5.231   1.470 -0.2421  0.3887 -0.5192
12304SOL    HW138106   7.288   5.264   1.550  1.6519 -0.5417 -1.0364
12304SOL    HW238107   7.158   5.210   1.495  0.4469 -0.3759  1.5047
12305SOL     OW38108   8.603   2.173   4.255 -0.1906  0.3939  0.5807
12305SOL    HW138109   8.646   2.253   4.224  4.4940 -1.6985  0.8433
12305SOL    HW238110   8.566   2.134   4.177 -1.9503  2.3414  0.3434
12306SOL     OW38111   8.279   3.974   0.432  0.1276 -0.0783 -0.1477
12306SOL    HW138112   8.267   3.912   0.360  0.5392 -2.1668  1.4638
12306SOL    HW238113   8.200   4.027   0.432  0.0233 -0.1938 -1.9683
12307SOL     OW38114   6.542   1.650   5.720  0.2916  0.3228 -0.1510
12307SOL    HW138115   6.457   1.629   5.681 -0.0753 -0.5424  1.0468
12307SOL    HW238116   6.586   1.565   5.728  0.9030  0.6544  0.0502
12308SOL     OW38117   8.068   7.751   5.706  0.4326 -0.1050  0.2231
12308SOL    HW138118   8.016   7.797   5.772 -1.3787  1.5144 -2.1520
12308SOL    HW238119   8.066   7.808   5.630  2.0219 -2.0927 -1.4298
12309SOL     OW38120   0.423   0.414   8.330  0.1607  0.0541  0.6260
12309SOL    HW138121   0.460   0.452   8.250 -3.4165  1.4384 -0.5723
12309SOL    HW238122   0.384   0.331   8.301  0.5924 -0.4274  1.4012
12310SOL     OW38123   8.504   1.535   7.739 -0.0478  0.0711 -0.3816
12310SOL    HW138124   8.412   1.547   7.763  0.3812 -0.4243  1.7170
12310SOL    HW238125   8.533   1.461   7.792  1.8580  0.9250 -0.1393
12311SOL     OW38126   4.652   0.658   1.061  0.2320 -0.2104 -0.1985
12311SOL    HW138127   4.681   0.658   0.970 -0.1306  1.7967 -0.3453
12311SOL    HW238128   4.584   0.725   1.064 -0.8056 -1.2683  1.2494
12312SOL     OW38129   7.379   8.157   4.121 -0.6004 -0.4924 -0.5468
12312SOL    HW138130   7.361   8.112   4.039  0.1101  1.4772 -1.8544
12312SOL    HW238131   7.473   8.171   4.121 -0.7603  0.6874 -0.0393
12313SOL     OW38132   4.754   2.115   6.094  0.2301 -0.5379  0.0152
12313SOL    HW138133   4.688   2.168   6.139  0.7343  1.1803 -1.1638
12313SOL    HW238134   4.740   2.134   6.001  0.9058 -1.9488 -0.4064
12314SOL     OW38135   5.509   4.582   0.693  0.7289  0.7080 -0.2336
12314SOL    HW138136   5.533   4.661   0.742  0.4417  0.8739 -0.3576
12314SOL    HW238137   5.484   4.614   0.607 -0.3014  0.5899  0.0027
12315SOL     OW38138   0.972   1.352   5.859 -0.0164  0.3356 -0.1021
12315SOL    HW138139   1.021   1.387   5.934 -1.1958  0.8921  0.4362
12315SOL    HW238140   1.015   1.390   5.782  1.5255 -0.6295  0.2279
12316SOL     OW38141   0.103   2.925   6.230 -0.2702  0.0611 -0.7128
12316SOL    HW138142   0.106   2.987   6.157 -0.1361 -0.0773 -0.8258
12316SOL    HW238143   0.021   2.877   6.218 -0.7538  0.7438 -0.1891
12317SOL     OW38144   2.365   3.294   3.791 -0.1529  0.1541  0.3095
12317SOL    HW138145   2.332   3.205   3.777 -0.7200  0.3120  0.6070
12317SOL    HW238146   2.301   3.334   3.850  1.5116 -0.0782  2.3671
12318SOL     OW38147   3.578   3.784   4.379 -0.3696 -0.4692  0.1082
12318SOL    HW138148   3.550   3.858   4.325  1.3061 -0.2172 -0.4625
12318SOL    HW238149   3.566   3.814   4.469  1.2933  0.9460 -0.1018
12319SOL     OW38150   1.548   3.711   4.086  0.2131 -0.2721  0.2664
12319SOL    HW138151   1.456   3.709   4.114 -0.0977  0.4238 -0.6404
12319SOL    HW238152   1.592   3.765   4.151 -0.2398  0.2503  0.1489
12320SOL     OW38153   0.442   0.417   2.893 -0.0271  0.2204 -0.2397
12320SOL    HW138154   0.524   0.397   2.938 -0.1165 -1.6171 -0.7793
12320SOL    HW238155   0.434   0.348   2.827 -0.4491  2.1912 -2.3751
12321SOL     OW38156   0.855   7.736   0.616 -0.5412  0.0049  0.6237
12321SOL    HW138157   0.947   7.759   0.625 -0.7410  0.7935  0.7110
12321SOL    HW238158   0.840   7.732   0.521 -0.5191  0.3173  0.6056
12322SOL     OW38159   0.044   4.181   8.576  0.1642  0.0947  0.1507
12322SOL    HW138160   0.038   4.240   8.501 -0.8980  1.6933  1.4304
12322SOL    HW238161   0.053   4.238   8.652  1.0537 -1.4691  1.2995
12323SOL     OW38162   4.297   2.351   8.201  0.1806 -0.2313  0.5647
12323SOL    HW138163   4.364   2.285   8.218  0.6164 -0.1645 -0.7901
12323SOL    HW238164   4.337   2.433   8.232 -0.5990 -0.6500  2.8062
12324SOL     OW38165   4.039   0.960   0.775 -0.1148  0.0447 -0.4131
12324SOL    HW138166   3.980   1.035   0.782 -0.1729  0.3267 -2.9227
12324SOL    HW238167   4.056   0.951   0.681  0.2200 -2.8418 -0.1820
12325SOL     OW38168   3.409   3.713   7.294 -0.2459 -0.2998  0.0161
12325SOL    HW138169   3.327   3.754   7.320 -0.1541 -1.0486  1.6123
12325SOL    HW238170   3.440   3.766   7.220 -1.5265  0.7524  0.1980
12326SOL     OW38171   8.105   0.344   2.768  0.0045  0.4288 -0.5090
12326SOL    HW138172   8.039   0.408   2.793  1.0456  1.4278 -0.1819
12326SOL    HW238173   8.098   0.275   2.834 -1.3552  0.0150 -1.0547
12327SOL     OW38174   6.088   1.237   1.577  0.5889 -0.3738  0.3526
12327SOL    HW138175   6.098   1.207   1.667  1.0405 -1.0167  0.0910
12327SOL    HW238176   6.033   1.315   1.584  0.6501 -0.3985  1.1858
12328SOL     OW38177   5.158   7.813   2.851  0.0809 -0.6559 -0.2270
12328SOL    HW138178   5.066   7.834   2.868  0.1137 -0.6167 -0.0901
12328SOL    HW238179   5.186   7.765   2.929  0.4092  0.0802  0.1258
12329SOL     OW38180   7.217   5.549   2.193 -0.6039 -0.2958  0.3146
12329SOL    HW138181   7.139   5.604   2.190 -0.2118  0.2722  0.4461
12329SOL    HW238182   7.271   5.586   2.263  0.7081  0.5916 -1.0994
12330SOL     OW38183   4.603   7.303   4.408  0.1211  0.1173 -0.1948
12330SOL    HW138184   4.618   7.331   4.498  0.4573 -1.9586  0.4499
12330SOL    HW238185   4.536   7.362   4.375  1.3434  2.1543  0.7471
12331SOL     OW38186   5.076   0.966   3.668 -0.2959 -0.5711  0.0100
12331SOL    HW138187   5.050   0.922   3.749 -2.6044  0.1587 -0.2367
12331SOL    HW238188   5.137   1.034   3.696 -1.3778 -0.0581  1.2544
12332SOL     OW38189   1.771   5.756   4.981  0.0274 -0.2904  0.1366
12332SOL    HW138190   1.748   5.767   4.889  0.2027  0.0518  0.1303
12332SOL    HW238191   1.845   5.816   4.994 -0.8374  0.6527  0.8222
12333SOL     OW38192   5.100   6.498   5.703  0.6371 -0.4482  0.1469
12333SOL    HW138193   5.016   6.465   5.735  1.4209 -1.9065  0.7900
12333SOL    HW238194   5.118   6.573   5.759  0.1071 -0.5581  0.4804
12334SOL     OW38195   3.076   5.433   5.821  0.5497  0.0048  0.1268
12334SOL    HW138196   3.026   5.385   5.886 -0.0896  1.1081  0.4742
12334SOL    HW238197   3.053   5.525   5.836  1.0249  0.3459 -1.1198
12335SOL     OW38198   5.622   1.041   2.247 -0.0221  0.0807  0.0179
12335SOL    HW138199   5.677   1.107   2.289  0.0512 -0.2072  0.3835
12335SOL    HW238200   5.533   1.076   2.256 -0.0173 -0.0234  0.5071
12336SOL     OW38201   5.040   6.503   7.035 -0.6259 -0.5364 -0.2071
12336SOL    HW138202   5.087   6.427   7.069  0.8319  0.5226  0.2421
12336SOL    HW238203   5.017   6.555   7.112 -2.0808 -0.7470 -0.4622
12337SOL     OW38204   2.852   7.956   3.625 -0.1151  0.0371  0.0716
12337SOL    HW138205   2.789   7.986   3.560  0.3991 -1.1198 -1.0165
12337SOL    HW238206   2.802   7.943   3.705 -1.2597 -0.8032 -0.7551
12338SOL     OW38207   8.149   8.258   6.323 -0.1021 -0.2032 -0.0224
12338SOL    HW138208   8.230   8.306   6.302 -0.0790 -0.8471 -1.5726
12338SOL    HW238209   8.178   8.185   6.377  0.1595  0.3080  0.5443
12339SOL     OW38210   3.746   0.360   4.933  0.2679 -0.0554 -0.6158
12339SOL    HW138211   3.653   0.375   4.914  0.5347  0.3371 -1.6992
12339SOL    HW238212   3.746   0.288   4.996 -0.8221  0.8383  0.4765
12340SOL     OW38213   0.298   7.488   1.324  0.4534  0.0079 -0.4774
12340SOL    HW138214   0.210   7.451   1.334  1.4545 -2.2150  1.1221
12340SOL    HW238215   0.329   7.500   1.414  1.9017  0.4437 -1.0136
12341SOL     OW38216   5.626   3.987   0.166 -0.3458  0.5810 -0.0954
12341SOL    HW138217   5.633   3.905   0.215 -0.3257  0.2029 -0.7172
12341SOL    HW238218   5.589   4.049   0.229  0.2044  0.2612  0.5639
12342SOL     OW38219   4.935   2.382   6.497  0.4555  0.4841  0.3071
12342SOL    HW138220   5.019   2.368   6.455  0.6063  0.5100  0.5965
12342SOL    HW238221   4.884   2.433   6.434  0.8945  1.0506  0.4007
12343SOL     OW38222   6.670   2.012   4.680 -0.0869  0.0253  0.7815
12343SOL    HW138223   6.629   2.009   4.594  0.2763  0.4907  0.5884
12343SOL    HW238224   6.603   2.047   4.738  0.1360  1.1373  0.3981
12344SOL     OW38225   4.237   0.077   7.808  0.3198  0.6962 -0.0609
12344SOL    HW138226   4.150   0.116   7.814 -0.5879 -0.7971 -2.3047
12344SOL    HW238227   4.281   0.127   7.740  1.3744  1.6068  1.2368
12345SOL     OW38228   0.859   6.771   7.144 -0.4347 -0.1347  0.6469
12345SOL    HW138229   0.857   6.835   7.073  0.4123 -1.3567 -0.5262
12345SOL    HW238230   0.885   6.821   7.221 -2.9376  1.5383  0.5017
12346SOL     OW38231   2.017   6.330   6.848 -0.8486  0.0611 -0.5382
12346SOL    HW138232   1.983   6.414   6.817 -2.9327 -0.8528 -0.8976
12346SOL    HW238233   1.944   6.291   6.897  0.3216 -1.2253  0.2590
12347SOL     OW38234   4.190   8.123   0.219  0.0767  0.1254 -0.1866
12347SOL    HW138235   4.211   8.117   0.126 -0.1595  1.3253 -0.3312
12347SOL    HW238236   4.230   8.205   0.248 -0.3366  0.0539  0.6309
12348SOL     OW38237   2.329   5.356   6.864  0.1145  0.5265 -0.5350
12348SOL    HW138238   2.396   5.423   6.874  0.0420  0.2127  4.4880
12348SOL    HW238239   2.254   5.389   6.913 -1.3230 -1.5942 -1.1692
12349SOL     OW38240   6.936   0.828   4.378  0.2730  0.1420 -0.3302
12349SOL    HW138241   7.010   0.887   4.389  0.6461 -0.1633 -1.1220
12349SOL    HW238242   6.906   0.844   4.288  1.5420 -2.1703 -1.2339
12350SOL     OW38243   8.030   8.006   2.989 -0.1750  0.4046 -0.1583
12350SOL    HW138244   7.937   8.004   2.965  0.0591  1.0050 -1.1905
12350SOL    HW238245   8.067   7.927   2.951 -0.4710 -0.4237  1.2298
12351SOL     OW38246   6.853   1.894   4.876  0.4784  0.1777 -0.4136
12351SOL    HW138247   6.818   1.967   4.824  1.3841  1.5478  0.8278
12351SOL    HW238248   6.935   1.927   4.912  0.2245 -0.9734  1.3235
12352SOL     OW38249   3.685   3.326   0.271  0.3068  0.0411  0.0991
12352SOL    HW138250   3.703   3.345   0.179 -0.3942  1.8643  0.2994
12352SOL    HW238251   3.614   3.263   0.269 -0.5266  0.9652 -0.6307
12353SOL     OW38252   4.017   6.867   3.161 -0.0881 -0.2022  0.1602
12353SOL    HW138253   3.983   6.956   3.152 -0.2524 -0.4475 -2.7404
12353SOL    HW238254   4.015   6.849   3.255 -1.4477  2.2942  0.6855
12354SOL     OW38255   5.187   1.801   1.679 -0.3327  0.1400  0.6827
12354SOL    HW138256   5.152   1.890   1.682 -1.7026 -0.3735  0.4939
12354SOL    HW238257   5.128   1.751   1.735  0.5457 -0.6138  0.9393
12355SOL     OW38258   1.405   0.305   3.448 -0.3633 -0.0994 -0.3955
12355SOL    HW138259   1.486   0.257   3.429 -0.1068  0.3453 -0.4641
12355SOL    HW238260   1.362   0.255   3.517  0.5352  0.2674  0.4588
12356SOL     OW38261   4.460   8.595   0.520 -0.0951  0.2987  0.0065
12356SOL    HW138262   4.465   8.689   0.538 -1.9951  0.6540 -1.0545
12356SOL    HW238263   4.525   8.581   0.451  0.7227  0.6603  0.6775
12357SOL     OW38264   2.976   3.347   1.559 -0.0287  0.3423  0.0709
12357SOL    HW138265   2.899   3.383   1.603  0.0341  0.5148  0.0409
12357SOL    HW238266   2.955   3.255   1.546 -1.0395  0.7668 -1.6578
12358SOL     OW38267   4.945   5.570   6.752  0.1598 -0.0976  0.1116
12358SOL    HW138268   4.896   5.611   6.823 -1.4037 -0.9505 -0.4117
12358SOL    HW238269   4.932   5.628   6.677  0.0984 -0.2160  0.0285
12359SOL     OW38270   4.992   2.429   0.528  0.1846  0.1077  0.3893
12359SOL    HW138271   4.935   2.505   0.518 -0.5017 -0.4526 -0.1089
12359SOL    HW238272   4.935   2.361   0.565  1.0006  0.0900  1.6847
12360SOL     OW38273   8.034   3.312   5.519 -0.1424  0.3493 -0.5255
12360SOL    HW138274   8.061   3.221   5.506 -1.2925  0.0632 -0.9885
12360SOL    HW238275   8.085   3.362   5.455  1.8646  0.3083  0.9479
12361SOL     OW38276   1.762   2.574   7.657  0.0778 -0.3158  0.4474
12361SOL    HW138277   1.826   2.511   7.625 -0.5340 -1.2502  1.0290
12361SOL    HW238278   1.687   2.564   7.598  0.4098  0.7410 -0.2008
12362SOL     OW38279   8.335   0.774   7.093 -0.0385  0.3174 -0.9989
12362SOL    HW138280   8.383   0.853   7.120 -0.3464  0.4091 -0.7159
12362SOL    HW238281   8.268   0.807   7.033 -0.7975  0.4040 -0.1264
12363SOL     OW38282   2.838   6.527   2.611  0.2770  0.4085 -0.1039
12363SOL    HW138283   2.848   6.521   2.516 -2.4356  0.4837 -0.4870
12363SOL    HW238284   2.810   6.617   2.627  0.7792  0.4185  0.7727
12364SOL     OW38285   8.434   3.812   2.768  0.3618 -0.0769  0.1211
12364SOL    HW138286   8.396   3.726   2.789  0.4528 -0.1698 -0.0869
12364SOL    HW238287   8.446   3.855   2.852 -2.6658  1.0270  0.1072
12365SOL     OW38288   4.665   8.495   1.635  0.4843 -0.1513 -0.5013
12365SOL    HW138289   4.704   8.541   1.710 -0.0148 -1.9794  0.9503
12365SOL    HW238290   4.704   8.408   1.637 -0.4699 -0.6247 -1.6244
12366SOL     OW38291   4.250   3.797   3.855 -0.3273  0.8331 -0.1891
12366SOL    HW138292   4.297   3.872   3.818  0.5044  0.2059 -0.4293
12366SOL    HW238293   4.285   3.721   3.809 -0.0418  0.1386  1.1307
12367SOL     OW38294   1.456   7.111   6.040  0.9111 -0.5166 -0.1871
12367SOL    HW138295   1.374   7.155   6.062  0.3849 -2.1014  1.2314
12367SOL    HW238296   1.520   7.182   6.033  0.3604  0.5072  3.0939
12368SOL     OW38297   4.118   7.099   5.848 -0.0703  0.1885  0.5445
12368SOL    HW138298   4.193   7.040   5.839  1.2356  1.5131  2.1912
12368SOL    HW238299   4.151   7.184   5.819 -0.8645  0.8392  1.5151
12369SOL     OW38300   1.361   5.276   0.350  0.3547  0.7825  0.4861
12369SOL    HW138301   1.400   5.234   0.274  1.1852 -1.2895  1.9768
12369SOL    HW238302   1.268   5.255   0.345  0.1840  1.6641 -0.5267
12370SOL     OW38303   1.141   5.969   2.571 -0.1463  0.6834 -0.3978
12370SOL    HW138304   1.211   5.956   2.506  0.5911 -0.4560  0.5635
12370SOL    HW238305   1.129   6.063   2.575  0.5102  0.8329 -1.4461
12371SOL     OW38306   0.108   8.593   6.760 -0.3214  0.6928  0.3863
12371SOL    HW138307   0.202   8.607   6.764 -0.4155  1.1318  2.2967
12371SOL    HW238308   0.080   8.635   6.679  1.3035 -0.8498 -1.0563
12372SOL     OW38309   1.209   2.506   0.772  0.5177 -0.1727  0.0549
12372SOL    HW138310   1.197   2.437   0.707  0.1904  0.6026 -0.7375
12372SOL    HW238311   1.185   2.587   0.726  0.6097  0.4390  1.0402
12373SOL     OW38312   3.788   4.719   1.439  0.3759 -0.1560 -0.4221
12373SOL    HW138313   3.724   4.704   1.508  2.3822 -0.1620  1.5682
12373SOL    HW238314   3.770   4.652   1.374 -0.9885 -0.7615  0.5407
12374SOL     OW38315   8.374   8.085   0.037 -0.7288 -0.1104 -0.5165
12374SOL    HW138316   8.445   8.149   0.048  0.0580 -0.9603 -0.5916
12374SOL    HW238317   8.410   8.019  -0.022 -0.9619 -1.4287  0.7472
12375SOL     OW38318   3.119   3.331   2.968 -0.1995  0.2699 -0.1208
12375SOL    HW138319   3.076   3.393   3.027 -0.4093 -2.3089  2.6903
12375SOL    HW238320   3.107   3.246   3.010  1.2797 -1.5447 -3.0393
12376SOL     OW38321   7.822   8.478   6.963  0.4780  0.3055  0.1489
12376SOL    HW138322   7.770   8.468   7.043  1.0522  0.2554  0.5232
12376SOL    HW238323   7.769   8.533   6.906  1.0776  2.4077  1.5102
12377SOL     OW38324   3.532   4.810   5.583 -0.2136 -0.2494 -0.5290
12377SOL    HW138325   3.467   4.878   5.565  0.8186  1.0384  0.3982
12377SOL    HW238326   3.497   4.763   5.659 -1.0189 -0.8975 -1.2852
12378SOL     OW38327   5.182   6.479   4.545 -0.2193 -0.5148  0.1141
12378SOL    HW138328   5.254   6.542   4.550 -0.6567 -0.0476  0.6560
12378SOL    HW238329   5.132   6.506   4.468 -1.0791  0.5584  1.0053
12379SOL     OW38330   2.998   3.210   5.344  0.2703 -0.3111  0.3972
12379SOL    HW138331   2.962   3.126   5.373 -0.5181  0.4528  1.7280
12379SOL    HW238332   3.074   3.187   5.291  0.2452 -1.8480  0.9899
12380SOL     OW38333   4.092   0.265   3.325  0.2140 -0.2957 -0.1593
12380SOL    HW138334   4.176   0.311   3.323 -0.1044  0.2963 -0.3212
12380SOL    HW238335   4.027   0.335   3.318 -0.3326 -0.5902  1.5317
12381SOL     OW38336   6.830   5.720   7.054  0.4202 -0.1561  0.4689
12381SOL    HW138337   6.808   5.716   6.961  0.8374 -0.9829  0.4030
12381SOL    HW238338   6.796   5.638   7.090  0.3558  0.1132  1.0292
12382SOL     OW38339   6.435   6.765   5.690  0.3449  0.2305  0.2951
12382SOL    HW138340   6.432   6.826   5.764  1.2180 -1.4515  1.7863
12382SOL    HW238341   6.442   6.678   5.730 -1.1452 -0.9324 -1.7301
12383SOL     OW38342   0.081   3.351   3.398 -0.0982 -0.1936  0.0643
12383SOL    HW138343   0.015   3.411   3.364  0.3106  0.7252  0.8436
12383SOL    HW238344   0.158   3.367   3.342 -0.7672 -1.8855 -1.4040
12384SOL     OW38345   3.806   2.551   5.832 -0.2791 -0.2212 -0.4021
12384SOL    HW138346   3.771   2.621   5.887 -0.0801  0.6245 -1.3141
12384SOL    HW238347   3.736   2.533   5.769  0.4969  0.8038 -1.6249
12385SOL     OW38348   8.244   7.920   4.496  0.0668 -0.3291 -0.3241
12385SOL    HW138349   8.229   7.942   4.588 -0.4380  0.5914 -0.6197
12385SOL    HW238350   8.230   7.825   4.492  2.4177 -0.8217  0.9947
12386SOL     OW38351   2.280   5.560   2.868 -0.0736  0.1233  0.2807
12386SOL    HW138352   2.348   5.584   2.932  1.1663  0.0935 -0.9772
12386SOL    HW238353   2.224   5.499   2.915  1.0099 -0.1705  1.2509
12387SOL     OW38354   1.057   7.737   5.521  0.2751 -0.7502  0.6833
12387SOL    HW138355   1.016   7.727   5.607 -0.1435 -2.5544  0.3231
12387SOL    HW238356   1.003   7.802   5.476  0.5906  0.3390  1.8055
12388SOL     OW38357   1.099   5.134   0.358 -0.0813 -0.1892  0.0360
12388SOL    HW138358   1.144   5.052   0.378  0.7939  0.5260  1.0710
12388SOL    HW238359   1.045   5.113   0.282  0.9228 -1.4556 -0.3677
12389SOL     OW38360   0.387   6.214   8.253 -0.1582  0.1507  0.3057
12389SOL    HW138361   0.348   6.297   8.227  0.5742  0.3480 -0.2043
12389SOL    HW238362   0.363   6.152   8.184  0.7873  0.3857 -0.2578
12390SOL     OW38363   6.393   6.127   6.763  0.2266 -0.0975  0.1385
12390SOL    HW138364   6.419   6.080   6.684 -1.8677 -1.3078  0.0843
12390SOL    HW238365   6.397   6.219   6.739  0.3987 -0.4209 -1.1318
12391SOL     OW38366   8.517   6.678   0.471  0.0423 -0.6731  0.2052
12391SOL    HW138367   8.488   6.588   0.458  0.6057 -0.5353 -2.6719
12391SOL    HW238368   8.602   6.670   0.516  1.5802 -1.8545 -2.6625
12392SOL     OW38369   8.478   1.531   3.615 -0.3737 -0.3642  0.2133
12392SOL    HW138370   8.528   1.488   3.545  1.1537  1.4741  0.0831
12392SOL    HW238371   8.396   1.483   3.620  0.2264 -1.6634 -1.6153
12393SOL     OW38372   3.401   2.489   0.881 -0.2959 -0.3229  0.1252
12393SOL    HW138373   3.323   2.541   0.898  0.0131 -0.3615  1.8848
12393SOL    HW238374   3.370   2.398   0.884 -0.1641 -0.3483  1.1011
12394SOL     OW38375   3.606   8.248   4.292  0.2178  0.5057  0.6099
12394SOL    HW138376   3.666   8.323   4.289 -0.6717  1.2099 -0.7179
12394SOL    HW238377   3.663   8.171   4.286  0.9758  1.1660 -1.8855
12395SOL     OW38378   7.206   7.918   1.409  0.0663  0.0906 -0.1434
12395SOL    HW138379   7.115   7.928   1.380 -0.1972 -0.8251  0.3087
12395SOL    HW238380   7.200   7.916   1.505  0.6720  0.8836 -0.0778
12396SOL     OW38381   3.353   0.203   3.799  0.3827  0.6219  0.0388
12396SOL    HW138382   3.446   0.201   3.776  0.5107 -0.5587  0.6108
12396SOL    HW238383   3.322   0.287   3.764  1.2351  0.2192 -1.8240
12397SOL     OW38384   1.671   0.172   6.988  0.1305  0.2672  0.2411
12397SOL    HW138385   1.713   0.231   7.051  1.0591 -0.5880  0.4511
12397SOL    HW238386   1.736   0.103   6.973 -0.1074  0.4019 -1.6031
12398SOL     OW38387   3.603   5.943   1.372 -0.4019 -0.2926 -0.0096
12398SOL    HW138388   3.564   5.904   1.294 -3.0492 -1.0344  1.5843
12398SOL    HW238389   3.533   5.995   1.411  0.8158 -0.0283  1.9583
12399SOL     OW38390   4.961   0.185   6.261 -0.1319 -0.3329  0.2732
12399SOL    HW138391   4.934   0.098   6.291 -0.6779 -0.6440 -1.0755
12399SOL    HW238392   4.972   0.176   6.167  0.5875  0.8713  0.2177
12400SOL     OW38393   2.075   2.438   2.662  0.0730  0.6363 -0.1869
12400SOL    HW138394   2.158   2.460   2.705 -0.1698 -0.8016  1.0914
12400SOL    HW238395   2.008   2.460   2.727 -0.3309 -1.0425  0.0258
12401SOL     OW38396   2.138   2.475   7.792 -0.2128 -0.1044 -0.2990
12401SOL    HW138397   2.153   2.380   7.793  1.4920  0.1268 -0.5773
12401SOL    HW238398   2.054   2.486   7.837 -0.5994 -1.7585 -0.5314
12402SOL     OW38399   5.506   2.226   1.992 -0.1430 -0.2414  0.6393
12402SOL    HW138400   5.569   2.185   2.051 -0.3219  0.7982  1.5759
12402SOL    HW238401   5.451   2.281   2.048  1.9693  3.7523 -0.7594
12403SOL     OW38402   6.024   7.382   3.443 -0.1337 -0.8392 -0.1329
12403SOL    HW138403   5.981   7.393   3.528 -2.1001  1.2041 -1.2680
12403SOL    HW238404   6.117   7.393   3.461 -0.6148  1.1435  1.5708
12404SOL     OW38405   2.141   2.048   1.824  0.6433 -0.9475  0.1237
12404SOL    HW138406   2.165   1.967   1.779  0.1164 -0.6590 -0.6954
12404SOL    HW238407   2.080   2.020   1.892 -1.0201 -1.0620 -1.3363
12405SOL     OW38408   0.961   8.330   7.231 -0.1876 -0.4349  0.4711
12405SOL    HW138409   0.975   8.286   7.146  2.3471  3.2408 -1.2885
12405SOL    HW238410   0.867   8.322   7.247 -0.6883 -1.7797 -2.4008
12406SOL     OW38411   3.686   1.365   2.986 -0.0161  0.3719 -0.0506
12406SOL    HW138412   3.632   1.292   3.019  0.0697 -0.8496 -2.3845
12406SOL    HW238413   3.770   1.324   2.965  0.2826  1.3106 -0.7126
12407SOL     OW38414   3.614   5.143   0.480 -0.1020  0.4734  0.5323
12407SOL    HW138415   3.698   5.101   0.497 -0.8495 -1.0536  0.7125
12407SOL    HW238416   3.570   5.142   0.565 -1.1643 -0.8506  0.0103
12408SOL     OW38417   1.626   2.983   4.690 -0.2621  0.5564 -0.6851
12408SOL    HW138418   1.721   2.980   4.675  0.0084  4.0943 -0.5780
12408SOL    HW238419   1.615   2.956   4.781  0.8290  1.3243 -0.3002
12409SOL     OW38420   8.514   2.474   3.235  0.2591 -0.1548 -0.0466
12409SOL    HW138421   8.436   2.473   3.291 -0.3405  0.1453 -0.8512
12409SOL    HW238422   8.488   2.423   3.158  0.3858  1.0736 -0.9279
12410SOL     OW38423   6.628   5.924   7.783  0.4316  0.2813 -0.4355
12410SOL    HW138424   6.580   5.847   7.752 -0.0679 -0.4764  1.9704
12410SOL    HW238425   6.720   5.897   7.780  0.5325  0.7128 -2.3915
12411SOL     OW38426   8.030   6.168   1.955 -0.3170  0.2870 -0.2512
12411SOL    HW138427   8.107   6.141   1.905 -1.1629 -0.1705 -1.3578
12411SOL    HW238428   8.034   6.116   2.036  0.7683  0.6177 -0.0848
12412SOL     OW38429   7.916   6.541   3.882  0.5261  0.2954 -0.6484
12412SOL    HW138430   7.906   6.604   3.954  0.2899  0.4100 -0.7788
12412SOL    HW238431   7.847   6.476   3.897  1.4805 -0.5749  0.1318
12413SOL     OW38432   2.098   3.058   0.448  0.7236 -0.0024  0.0357
12413SOL    HW138433   2.055   3.133   0.407  0.8971 -0.2909 -0.6810
12413SOL    HW238434   2.074   2.983   0.394  0.6710 -0.4520  0.6623
12414SOL     OW38435   1.716   6.953   6.448  0.1494 -0.5359  0.1610
12414SOL    HW138436   1.685   7.042   6.436  0.7340 -0.3030  0.3353
12414SOL    HW238437   1.658   6.916   6.514 -1.0236 -0.7717 -0.9738
12415SOL     OW38438   7.615   5.122   8.076 -0.1946  0.1278 -0.8910
12415SOL    HW138439   7.679   5.071   8.026 -0.1843  0.5878 -1.3494
12415SOL    HW238440   7.544   5.139   8.015 -0.1492  0.7503 -0.7727
12416SOL     OW38441   2.401   2.832   0.866  0.3730 -0.4219 -0.2362
12416SOL    HW138442   2.454   2.836   0.787 -1.8753  0.4026 -1.8092
12416SOL    HW238443   2.352   2.914   0.867 -0.0475 -0.6351  1.7477
12417SOL     OW38444   5.238   5.902   6.546 -0.7137 -0.4433 -0.2528
12417SOL    HW138445   5.329   5.877   6.526 -0.9424 -0.9308 -0.7013
12417SOL    HW238446   5.243   5.940   6.634  0.2147  1.1815 -0.9686
12418SOL     OW38447   5.850   8.201   3.584  0.5736  0.2676  0.1887
12418SOL    HW138448   5.768   8.237   3.552  0.1127 -0.6641  0.2959
12418SOL    HW238449   5.893   8.274   3.628  1.1801  1.5607 -2.4055
12419SOL     OW38450   7.728   2.665   2.430  0.2177 -0.0893  0.6160
12419SOL    HW138451   7.739   2.614   2.510 -1.8612  1.0427  1.7353
12419SOL    HW238452   7.766   2.750   2.451  1.9452 -0.5303 -0.5505
12420SOL     OW38453   2.587   2.038   1.081 -0.1664 -0.2150  0.1737
12420SOL    HW138454   2.656   2.011   1.019 -0.0133  0.3009  0.1154
12420SOL    HW238455   2.549   1.956   1.110 -0.4982 -0.4649 -0.8970
12421SOL     OW38456   4.605   1.201   3.004 -0.5120  0.3667  0.2242
12421SOL    HW138457   4.666   1.272   3.025 -2.1154  1.5415  1.1243
12421SOL    HW238458   4.661   1.131   2.969  1.1281  2.0729 -0.7693
12422SOL     OW38459   5.942   0.003   6.861 -0.1398 -0.1165  0.1742
12422SOL    HW138460   5.924  -0.088   6.885  0.2496 -0.2744 -0.1218
12422SOL    HW238461   6.038   0.009   6.863 -0.1572  0.2270 -0.0247
12423SOL     OW38462   3.553   0.339   0.070  0.0998  0.3781  0.1758
12423SOL    HW138463   3.504   0.275   0.019  0.2006  1.6539 -1.6170
12423SOL    HW238464   3.606   0.386   0.006  1.7491  0.7515  1.7308
12424SOL     OW38465   6.541   8.534   4.512  0.0037 -0.2478  0.0669
12424SOL    HW138466   6.550   8.474   4.438 -0.2248  0.3575 -0.4700
12424SOL    HW238467   6.473   8.495   4.567  0.7581 -1.1296  0.3968
12425SOL     OW38468   5.778   4.881   3.234 -0.5113  0.5235 -0.4566
12425SOL    HW138469   5.683   4.877   3.250 -0.3648  0.1045  0.3376
12425SOL    HW238470   5.813   4.801   3.273  0.4624  1.8013  1.4077
12426SOL     OW38471   1.265   8.401   7.042  0.0362  0.7123 -0.2276
12426SOL    HW138472   1.188   8.358   7.004  0.0047 -0.8202  1.4333
12426SOL    HW238473   1.265   8.489   7.003 -1.6661  0.2422 -1.4147
12427SOL     OW38474   1.347   8.300   3.691 -0.7089 -0.1975 -0.1089
12427SOL    HW138475   1.259   8.331   3.713 -0.8445  0.4114 -1.4131
12427SOL    HW238476   1.342   8.279   3.598  0.9687  1.4728 -0.6260
12428SOL     OW38477   4.175   2.632   6.630 -0.1961 -0.0820  0.0371
12428SOL    HW138478   4.244   2.667   6.573 -1.7662  0.7148 -1.4804
12428SOL    HW238479   4.142   2.555   6.584 -0.3913 -0.3949  0.6902
12429SOL     OW38480   1.399   1.894   1.415  0.9759  0.3782 -0.6840
12429SOL    HW138481   1.487   1.896   1.452  0.1359  0.9558  1.4368
12429SOL    HW238482   1.379   1.986   1.396  0.9735  0.2029 -1.5517
12430SOL     OW38483   2.050   6.159   5.255  0.3414  0.5235 -0.3981
12430SOL    HW138484   2.143   6.143   5.235  0.1393 -1.5000  0.0879
12430SOL    HW238485   2.010   6.072   5.253 -1.7338  1.4347 -1.3639
12431SOL     OW38486   4.171   0.918   1.017 -0.1600  0.4463  0.1053
12431SOL    HW138487   4.132   0.928   0.930  0.0899  2.4556  0.1608
12431SOL    HW238488   4.199   1.007   1.040  1.8182 -0.4160  1.2931
12432SOL     OW38489   4.452   6.375   6.430 -0.4557  0.4321  0.4933
12432SOL    HW138490   4.384   6.352   6.493 -2.5050 -1.0269 -2.0613
12432SOL    HW238491   4.408   6.432   6.368  1.2365  1.0725 -0.1626
12433SOL     OW38492   4.128   6.413   7.835  0.6261  0.2542  0.6610
12433SOL    HW138493   4.043   6.437   7.873  0.6712  0.0843  0.8698
12433SOL    HW238494   4.192   6.436   7.901  0.7467  0.3978  0.4954
12434SOL     OW38495   3.035   1.181   7.591 -0.6432  0.5793 -0.4134
12434SOL    HW138496   2.973   1.212   7.525  0.0774  0.6768 -1.0678
12434SOL    HW238497   3.097   1.127   7.541  0.4122  1.3634  0.0229
12435SOL     OW38498   8.476   4.534   7.204 -0.4334  0.1595  0.4265
12435SOL    HW138499   8.460   4.491   7.120  0.4711 -0.5866  0.6169
12435SOL    HW238500   8.398   4.588   7.219 -1.2065 -0.7331 -0.2520
12436SOL     OW38501   4.220   2.459   2.558  0.2734  0.2702 -0.2726
12436SOL    HW138502   4.281   2.446   2.486  0.3855 -1.2532  0.0599
12436SOL    HW238503   4.157   2.523   2.525  0.6953  0.0834 -1.4750
12437SOL     OW38504   0.919   3.061   0.992  0.0256 -0.1844  0.2221
12437SOL    HW138505   0.960   3.110   0.921  0.6164  0.4806  1.0034
12437SOL    HW238506   0.991   3.039   1.051  0.0354 -3.2295 -0.7564
12438SOL     OW38507   3.422   5.198   0.929  0.3427  0.4077  0.2818
12438SOL    HW138508   3.345   5.194   0.872 -0.2094  0.7978  0.9832
12438SOL    HW238509   3.417   5.285   0.970  0.0396 -0.3032  1.8478
12439SOL     OW38510   3.406   1.975   3.942  1.0808 -0.0329  0.1232
12439SOL    HW138511   3.413   1.888   3.983 -2.5524  0.1805  1.5800
12439SOL    HW238512   3.319   1.976   3.903  1.1374  2.8653 -0.1133
12440SOL     OW38513   4.310   5.230   1.408  0.3958 -0.1879  0.2742
12440SOL    HW138514   4.362   5.155   1.437  0.6672  0.1900  0.7889
12440SOL    HW238515   4.375   5.301   1.397  0.2968 -0.2818 -1.1699
12441SOL     OW38516   2.999   6.768   6.670 -0.0588 -0.2433  0.1815
12441SOL    HW138517   3.059   6.841   6.654 -0.3208  0.1123  0.7991
12441SOL    HW238518   2.925   6.783   6.612  0.6616 -0.9631 -0.9746
12442SOL     OW38519   3.061   7.489   4.391  0.2407  0.2115  0.0120
12442SOL    HW138520   3.040   7.482   4.485  0.0345 -0.4368 -0.0729
12442SOL    HW238521   3.153   7.464   4.386 -0.1245 -1.2126 -0.1165
12443SOL     OW38522   3.092   8.484   4.516  0.2292  0.4896  0.3767
12443SOL    HW138523   3.082   8.450   4.427  3.1636  1.3320 -0.3765
12443SOL    HW238524   3.109   8.577   4.505  1.5553  0.4517  1.7283
12444SOL     OW38525   6.948   2.353   8.125 -0.3991  0.0172  0.0444
12444SOL    HW138526   7.034   2.394   8.127 -0.9022  1.0827  0.4226
12444SOL    HW238527   6.889   2.417   8.164 -1.1819 -1.1718  0.8990
12445SOL     OW38528   0.228   7.336   8.301 -0.3940 -0.6300 -0.0778
12445SOL    HW138529   0.271   7.268   8.353  0.5475 -0.9833 -1.2739
12445SOL    HW238530   0.219   7.410   8.361  1.6073 -0.6633  0.3219
12446SOL     OW38531   4.548   0.641   5.616 -0.6076  1.1671  0.1072
12446SOL    HW138532   4.593   0.723   5.637  0.8747  0.3958  0.0787
12446SOL    HW238533   4.525   0.649   5.524 -0.1781  1.4269  0.0192
12447SOL     OW38534   4.900   6.478   6.800  0.1155  0.1583 -0.2110
12447SOL    HW138535   4.937   6.469   6.888 -2.8110 -0.4299  1.0939
12447SOL    HW238536   4.887   6.388   6.771 -0.1183  0.3499 -0.7052
12448SOL     OW38537   0.915   6.987   6.313 -0.2698  0.1539  0.1007
12448SOL    HW138538   0.964   7.058   6.356 -2.4455  2.6755 -1.2632
12448SOL    HW238539   0.956   6.979   6.227 -0.4936  0.2835 -0.0174
12449SOL     OW38540   0.514   3.537   4.348  0.2499 -0.5788 -0.5284
12449SOL    HW138541   0.578   3.596   4.389 -1.1753 -0.5610  1.8821
12449SOL    HW238542   0.547   3.450   4.368 -1.6119 -0.6540  3.1019
12450SOL     OW38543   4.912   3.297   2.994  0.2754 -0.0200 -0.1780
12450SOL    HW138544   4.993   3.286   2.944 -0.2026  0.3997 -1.0711
12450SOL    HW238545   4.858   3.222   2.968 -0.5874  1.0196 -1.5415
12451SOL     OW38546   6.758   4.322   7.865 -0.4543 -0.1827  0.1586
12451SOL    HW138547   6.664   4.329   7.875 -0.5659 -1.3549  0.0641
12451SOL    HW238548   6.787   4.268   7.939  0.6790  3.1478  2.3855
12452SOL     OW38549   4.023   6.501   1.719  0.4478 -0.1485 -0.2994
12452SOL    HW138550   4.091   6.567   1.707  0.1490  0.2637  0.2388
12452SOL    HW238551   3.969   6.506   1.641 -0.2911  1.0962  0.2601
12453SOL     OW38552   2.095   7.598   3.222 -0.0129  0.0668  0.2887
12453SOL    HW138553   2.004   7.623   3.202  0.6452  2.2832 -0.2108
12453SOL    HW238554   2.118   7.534   3.155 -1.5444 -1.4410  1.1264
12454SOL     OW38555   1.887   6.500   0.080 -0.0925  0.1641  0.1987
12454SOL    HW138556   1.803   6.537   0.050 -1.0455 -1.9634  0.0616
12454SOL    HW238557   1.921   6.455   0.003  1.4871  1.4450  0.1048
12455SOL     OW38558   0.846   4.816   6.102  0.4818 -0.0150 -0.4231
12455SOL    HW138559   0.861   4.904   6.068  1.7617 -0.3679 -0.8258
12455SOL    HW238560   0.771   4.825   6.160  1.2290  1.5599  0.3630
12456SOL     OW38561   2.767   5.132   0.382  0.2660 -0.3998 -0.1623
12456SOL    HW138562   2.706   5.059   0.386  0.3102 -0.4665 -0.5977
12456SOL    HW238563   2.724   5.195   0.324 -1.2998  1.3725  2.7134
12457SOL     OW38564   0.574   0.805   7.422  0.0879  0.1381 -0.0058
12457SOL    HW138565   0.613   0.760   7.497  1.9078  0.8093 -0.4982
12457SOL    HW238566   0.482   0.782   7.426  0.9387 -4.1696 -0.5812
12458SOL     OW38567   4.744   6.397   8.038 -0.5275  0.1622 -0.4371
12458SOL    HW138568   4.726   6.460   8.108  0.8641  2.2420 -1.8502
12458SOL    HW238569   4.668   6.403   7.980 -0.7906 -0.1381 -0.1331
12459SOL     OW38570   4.748   7.803   3.071  0.1089  0.8083  0.0918
12459SOL    HW138571   4.730   7.743   3.142  2.8798  0.4442  0.6195
12459SOL    HW238572   4.820   7.762   3.023 -1.0129  1.5102 -2.3765
12460SOL     OW38573   1.057   7.199   7.128 -0.6983  0.3358 -0.0832
12460SOL    HW138574   1.096   7.279   7.161 -0.5424  0.0876  0.3405
12460SOL    HW238575   0.973   7.192   7.174 -0.1395 -0.4135  0.8698
12461SOL     OW38576   2.641   8.441   4.605 -0.0129  0.1558  0.1497
12461SOL    HW138577   2.634   8.487   4.521  1.3481  2.0858  1.0316
12461SOL    HW238578   2.560   8.462   4.651  0.0531  0.6479  0.0452
12462SOL     OW38579   6.699   4.162   6.185 -0.1787  0.5217 -0.0014
12462SOL    HW138580   6.730   4.205   6.106  0.0896 -0.3766 -0.3968
12462SOL    HW238581   6.625   4.215   6.214 -1.7525 -0.3768 -2.1291
12463SOL     OW38582   0.253   6.873   1.024 -0.1973 -0.3233  0.2601
12463SOL    HW138583   0.219   6.923   0.950  1.4462  0.5861  0.0914
12463SOL    HW238584   0.339   6.842   0.996  0.8869  0.8359  2.0779
12464SOL     OW38585   2.114   6.566   7.383  0.0742  0.5893  0.4299
12464SOL    HW138586   2.196   6.605   7.412  1.6951 -0.4852 -2.3733
12464SOL    HW238587   2.089   6.616   7.305 -1.4926  0.3099  0.7080
12465SOL     OW38588   7.415   5.363   2.246 -0.2565 -0.7065 -0.0052
12465SOL    HW138589   7.376   5.347   2.332 -0.0473 -0.2460  0.1805
12465SOL    HW238590   7.349   5.415   2.199  0.1347  0.1180  0.3273
12466SOL     OW38591   8.277   7.228   6.270  0.1408 -0.4491  0.2246
12466SOL    HW138592   8.265   7.290   6.199  0.6439 -0.5993  0.0005
12466SOL    HW238593   8.222   7.153   6.246 -1.6831  0.4960  1.2530
12467SOL     OW38594   6.029   4.596   5.820  0.2239  0.1231  0.2290
12467SOL    HW138595   6.053   4.526   5.880 -2.9922  0.5654  2.2492
12467SOL    HW238596   6.004   4.669   5.876 -1.0418  1.2584 -1.6859
12468SOL     OW38597   0.418   1.683   4.073  0.0531  0.2561 -0.4096
12468SOL    HW138598   0.329   1.663   4.100  0.5163 -0.6371  0.5268
12468SOL    HW238599   0.443   1.610   4.017  0.1480  0.5808 -0.7929
12469SOL     OW38600   0.700   5.216   3.608 -0.7155 -0.6712  0.4369
12469SOL    HW138601   0.749   5.298   3.615  0.6307 -1.3074 -0.9162
12469SOL    HW238602   0.713   5.173   3.693  0.0381 -0.2655  0.5332
12470SOL     OW38603   6.490   8.194   2.917 -0.0498  0.5567  0.0459
12470SOL    HW138604   6.472   8.176   3.009  3.4306  0.6500  0.8585
12470SOL    HW238605   6.468   8.112   2.872 -1.8820  0.5424  0.8779
12471SOL     OW38606   2.956   6.983   8.341  0.1174 -0.2070 -0.8766
12471SOL    HW138607   3.008   7.050   8.384 -0.0711 -0.4872 -0.2029
12471SOL    HW238608   2.890   7.031   8.291 -2.0283  0.1162  2.0656
12472SOL     OW38609   5.604   5.812   8.565 -0.1119 -0.0808 -0.0207
12472SOL    HW138610   5.615   5.907   8.558 -0.5443 -0.0693 -0.5718
12472SOL    HW238611   5.632   5.777   8.481  0.9412 -0.5371  0.4974
12473SOL     OW38612   6.320   5.186   3.245 -0.0463  0.4288 -0.2373
12473SOL    HW138613   6.383   5.115   3.241 -1.0980 -0.7238  1.6793
12473SOL    HW238614   6.370   5.262   3.275  0.6296 -0.2117  0.2893
12474SOL     OW38615   2.473   4.566   3.807 -0.0830 -0.0930 -0.2258
12474SOL    HW138616   2.395   4.520   3.840 -0.7521  0.1614 -1.4003
12474SOL    HW238617   2.491   4.633   3.874 -0.8260 -0.2034  0.0983
12475SOL     OW38618   3.419   1.836   3.427 -0.8101 -0.1540  0.2593
12475SOL    HW138619   3.344   1.777   3.422 -0.8142 -0.1377  0.1116
12475SOL    HW238620   3.480   1.801   3.362 -0.5903 -0.3089  0.5472
12476SOL     OW38621   6.088   0.391   3.092  0.5126 -0.4117 -0.0363
12476SOL    HW138622   6.049   0.450   3.027  0.8854 -0.0870  0.0344
12476SOL    HW238623   6.013   0.347   3.132  0.2789 -0.6296 -0.7018
12477SOL     OW38624   7.096   8.212   5.579  0.1291  0.4191  0.3785
12477SOL    HW138625   7.023   8.151   5.564  0.5540 -0.1939  0.7562
12477SOL    HW238626   7.162   8.188   5.514  0.2511  0.5526  0.4510
12478SOL     OW38627   7.503   1.909   4.776  0.1646  0.5457  0.5840
12478SOL    HW138628   7.551   1.864   4.846 -0.2184  0.1349  0.5831
12478SOL    HW238629   7.547   1.994   4.768  1.2243 -0.0218  0.2261
12479SOL     OW38630   2.433   2.069   3.521 -0.5544  0.1678 -0.3172
12479SOL    HW138631   2.435   2.099   3.430  1.2185  0.7918 -0.1235
12479SOL    HW238632   2.343   2.039   3.535 -1.7509  2.9356 -1.3339
12480SOL     OW38633   5.254   6.506   8.403  0.3024 -0.4264 -0.1478
12480SOL    HW138634   5.325   6.459   8.360  2.0561  1.4162  0.5935
12480SOL    HW238635   5.223   6.568   8.337 -1.0211 -1.5696 -0.6426
12481SOL     OW38636   2.211   8.112   0.152 -0.6072  0.6138  0.3763
12481SOL    HW138637   2.266   8.043   0.190 -1.7022  1.4595  3.7875
12481SOL    HW238638   2.177   8.073   0.071  1.7563 -1.4012  0.2220
12482SOL     OW38639   2.321   0.567   1.047  0.5440 -0.0279  0.2029
12482SOL    HW138640   2.323   0.520   1.130  0.5567  0.8724  0.7268
12482SOL    HW238641   2.347   0.656   1.069  3.3838 -0.3949 -1.2213
12483SOL     OW38642   5.202   4.326   1.287  0.0645 -0.6747 -0.1818
12483SOL    HW138643   5.260   4.329   1.211 -0.2849  0.5135 -0.4269
12483SOL    HW238644   5.114   4.324   1.249 -0.1415  0.7722  0.1683
12484SOL     OW38645   5.481   5.461   2.226  0.5900 -0.0671  0.2002
12484SOL    HW138646   5.451   5.489   2.139 -1.0254 -1.0943  0.3896
12484SOL    HW238647   5.442   5.375   2.238 -0.0166  0.4520  2.3566
12485SOL     OW38648   5.051   4.870   4.234 -0.9217 -0.1844 -0.2362
12485SOL    HW138649   5.103   4.885   4.155 -1.1559  0.6833 -0.2319
12485SOL    HW238650   4.998   4.949   4.243 -1.2060 -0.4603  0.5566
12486SOL     OW38651   4.963   6.111   2.781 -0.7953 -0.5830 -0.2120
12486SOL    HW138652   5.012   6.165   2.720 -2.0462  0.1986 -0.5615
12486SOL    HW238653   5.011   6.118   2.863  0.0061 -0.3405 -0.6923
12487SOL     OW38654   4.031   2.590   7.861  0.4985 -0.5495  0.0336
12487SOL    HW138655   4.111   2.562   7.818  0.6992  1.7494 -1.1897
12487SOL    HW238656   4.039   2.555   7.950  3.2188  0.2343  0.1860
12488SOL     OW38657   5.673   1.892   7.988 -0.4855  0.1001 -0.0599
12488SOL    HW138658   5.678   1.986   8.001 -2.3486  0.4046 -1.1871
12488SOL    HW238659   5.593   1.865   8.034  0.0020 -0.9450  0.2225
12489SOL     OW38660   8.041   7.651   6.421 -0.1416  0.0761  0.2865
12489SOL    HW138661   8.049   7.682   6.511 -1.0390 -0.0232  0.4118
12489SOL    HW238662   7.952   7.615   6.416 -0.6642  1.4559 -1.0573
12490SOL     OW38663   3.175   4.478   4.780 -0.1339  0.1177  0.3390
12490SOL    HW138664   3.083   4.495   4.758  0.4359  1.7628 -0.9119
12490SOL    HW238665   3.210   4.563   4.803  1.0007 -0.5677  1.2422
12491SOL     OW38666   1.907   3.481   1.194  0.3600 -0.1148 -0.2761
12491SOL    HW138667   1.814   3.487   1.217 -0.5189  1.8165 -3.6147
12491SOL    HW238668   1.951   3.534   1.260 -1.1800  0.5098  0.2989
12492SOL     OW38669   0.776   5.259   4.982 -0.3488 -0.1724  0.3993
12492SOL    HW138670   0.866   5.255   5.016  0.8322  1.4397 -2.2282
12492SOL    HW238671   0.777   5.203   4.905 -0.6570  2.2117 -1.4300
12493SOL     OW38672   5.785   1.705   6.511 -0.1870  0.0011  0.0534
12493SOL    HW138673   5.714   1.642   6.495 -0.4904  0.3055  0.1768
12493SOL    HW238674   5.739   1.786   6.534  0.2095  0.0710  0.6102
12494SOL     OW38675   0.863   1.466   7.311  0.1269 -0.2004 -0.1264
12494SOL    HW138676   0.932   1.499   7.368  1.3017  0.2040 -1.7330
12494SOL    HW238677   0.908   1.411   7.247 -1.1426 -0.5762 -0.7343
12495SOL     OW38678   4.620   6.323   1.332 -0.1835 -0.0456 -0.0086
12495SOL    HW138679   4.679   6.376   1.279  2.0000  0.4120  2.6283
12495SOL    HW238680   4.538   6.372   1.332  0.6491  1.4370 -0.6314
12496SOL     OW38681   4.266   6.708   1.789 -0.3802  0.0415  0.0499
12496SOL    HW138682   4.259   6.685   1.882 -0.6816  0.0114  0.0184
12496SOL    HW238683   4.298   6.799   1.790 -1.7659  0.5475  0.2047
12497SOL     OW38684   0.127   0.390   2.772 -0.0677 -0.1497 -0.2172
12497SOL    HW138685   0.190   0.363   2.839  0.0394 -1.4874 -0.8279
12497SOL    HW238686   0.076   0.311   2.754  0.5606 -0.1017 -2.4154
12498SOL     OW38687   2.756   8.056   4.749 -0.0526  0.0301 -0.4765
12498SOL    HW138688   2.784   8.026   4.836 -1.0621  0.2316 -0.0583
12498SOL    HW238689   2.773   7.983   4.691  1.3549  0.1647 -0.2668
12499SOL     OW38690   4.433   0.332   4.514  0.2366  0.3356  0.0124
12499SOL    HW138691   4.479   0.413   4.538 -1.6195  1.2578  0.6520
12499SOL    HW238692   4.361   0.326   4.577 -0.3154 -1.2371 -0.7154
12500SOL     OW38693   3.535   4.081   0.585 -0.1661  1.0157 -0.0444
12500SOL    HW138694   3.571   4.039   0.663 -0.1600  1.3121  0.1144
12500SOL    HW238695   3.608   4.134   0.551 -0.0135  0.5011 -0.5344
12501SOL     OW38696   4.295   3.711   2.471  0.0487  0.2355  0.2660
12501SOL    HW138697   4.348   3.787   2.448  0.5640 -0.3448 -0.5152
12501SOL    HW238698   4.210   3.748   2.497  0.2049  1.0659 -0.3419
12502SOL     OW38699   3.851   1.023   6.735  0.2547  0.0067  0.8661
12502SOL    HW138700   3.875   0.993   6.647 -0.5485 -1.6839  1.1703
12502SOL    HW238701   3.934   1.052   6.773  1.0547 -1.4400  0.3419
12503SOL     OW38702   6.144   3.241   7.487  0.6713 -0.2890 -0.1087
12503SOL    HW138703   6.187   3.296   7.553 -1.1180  1.4704 -0.3233
12503SOL    HW238704   6.193   3.258   7.407 -0.6662  2.1560 -0.4890
12504SOL     OW38705   3.500   6.920   5.546 -0.2483  0.0162 -0.3331
12504SOL    HW138706   3.499   7.009   5.583 -0.1477 -0.0880 -0.0786
12504SOL    HW238707   3.583   6.915   5.498  0.6230 -0.5428  1.1493
12505SOL     OW38708   1.184   1.424   3.573  0.3200  0.2479  0.4176
12505SOL    HW138709   1.089   1.410   3.569  0.4507 -0.5517 -0.4618
12505SOL    HW238710   1.198   1.474   3.653 -0.8637  0.5472  0.4600
12506SOL     OW38711   2.378   4.093   4.197  0.1942 -0.0312  0.2395
12506SOL    HW138712   2.435   4.017   4.190 -2.5584 -2.2961  0.3336
12506SOL    HW238713   2.409   4.140   4.274  2.3127 -0.7157 -0.1387
12507SOL     OW38714   1.492   3.548   0.671  0.4111  0.3401  0.2427
12507SOL    HW138715   1.485   3.517   0.762  2.1966  1.5424  0.8456
12507SOL    HW238716   1.554   3.488   0.630  1.1257  0.9463  0.4064
12508SOL     OW38717   1.562   5.985   3.723  0.3139 -0.1209 -0.1320
12508SOL    HW138718   1.555   6.026   3.636  1.5101 -1.7679 -1.0634
12508SOL    HW238719   1.643   5.935   3.719 -0.8085 -2.1616  1.1138
12509SOL     OW38720   5.879   3.324   8.387  0.2338  0.2729 -0.2612
12509SOL    HW138721   5.859   3.250   8.444  1.8379 -0.5943 -0.7577
12509SOL    HW238722   5.861   3.291   8.299  0.8243  0.5126 -0.4737
12510SOL     OW38723   2.650   1.396   2.321 -0.5019 -0.0750 -0.3266
12510SOL    HW138724   2.692   1.474   2.282  0.2436  0.0131  0.6368
12510SOL    HW238725   2.557   1.409   2.304 -0.1794 -0.5206 -2.9643
12511SOL     OW38726   4.086   8.089   3.981 -0.5061  0.7795 -0.1157
12511SOL    HW138727   4.092   8.015   4.042  0.5149  2.0434  1.3870
12511SOL    HW238728   4.010   8.139   4.011 -0.3967  1.0670 -0.3135
12512SOL     OW38729   5.097   2.056   1.057 -0.3778  0.6635  0.6202
12512SOL    HW138730   5.039   2.010   0.997  2.2361 -0.0021 -1.5817
12512SOL    HW238731   5.087   2.148   1.034 -0.5334  0.5532  0.2341
12513SOL     OW38732   0.155   8.371   8.080  0.3541 -0.4161 -0.1872
12513SOL    HW138733   0.198   8.329   8.154 -1.7296 -1.3244  0.5739
12513SOL    HW238734   0.071   8.325   8.071  0.1405  0.2785 -2.5315
12514SOL     OW38735   1.835   2.977   2.026  0.1238  0.3188  0.3762
12514SOL    HW138736   1.762   2.925   1.992  0.1851  0.6023 -0.1943
12514SOL    HW238737   1.807   3.004   2.113  0.4221 -1.3666  1.0427
12515SOL     OW38738   0.180   5.488   6.819 -0.1246 -0.1639 -0.0914
12515SOL    HW138739   0.154   5.528   6.902  1.1879  2.2194 -0.7201
12515SOL    HW238740   0.272   5.463   6.833 -0.8101 -2.8487  0.1688
12516SOL     OW38741   5.315   0.761   2.151  0.5551  0.4107 -0.0592
12516SOL    HW138742   5.223   0.770   2.125  0.4724  1.1672  0.4840
12516SOL    HW238743   5.358   0.839   2.117  0.7153  0.7517  0.8994
12517SOL     OW38744   4.506   5.277   1.793 -0.2422 -0.0907  0.1051
12517SOL    HW138745   4.576   5.225   1.834  0.7399  2.3252  1.6591
12517SOL    HW238746   4.429   5.220   1.796  1.4189 -2.5744 -1.0033
12518SOL     OW38747   2.067   0.943   3.015 -0.2158 -0.0085 -0.1279
12518SOL    HW138748   2.153   0.984   3.023  0.0479 -0.6616  0.5412
12518SOL    HW238749   2.051   0.904   3.101 -0.8778 -0.4771 -0.4548
12519SOL     OW38750   8.160   4.815   5.091  0.1766  0.2704 -0.1224
12519SOL    HW138751   8.212   4.813   5.010  1.0411  0.5239  0.4149
12519SOL    HW238752   8.186   4.897   5.134  0.0768 -0.0925  0.6420
12520SOL     OW38753   8.389   4.990   0.824  0.0637  0.0266  0.2984
12520SOL    HW138754   8.406   4.950   0.739 -2.6526  1.3127 -0.9664
12520SOL    HW238755   8.315   4.941   0.859  0.0236  0.6462  1.1106
12521SOL     OW38756   1.211   0.526   5.356  0.1002  0.3602 -0.3267
12521SOL    HW138757   1.135   0.494   5.404 -0.4391  1.3733 -0.4774
12521SOL    HW238758   1.283   0.523   5.419  0.4669 -2.5583 -0.7457
12522SOL     OW38759   3.933   6.359   5.419 -0.2720 -0.3082 -0.2680
12522SOL    HW138760   3.952   6.434   5.363 -0.1558 -0.8385 -0.9529
12522SOL    HW238761   3.922   6.397   5.507 -0.6092  0.5512 -0.6673
12523SOL     OW38762   4.665   6.665   3.741 -0.2755  0.0095 -0.0510
12523SOL    HW138763   4.636   6.642   3.652  0.0994 -0.3646 -0.0781
12523SOL    HW238764   4.747   6.712   3.728  0.6036 -1.3918  0.1609
12524SOL     OW38765   8.245   2.441   2.954  0.4216  0.5270  0.1463
12524SOL    HW138766   8.259   2.363   3.008  1.7333 -0.0305 -0.9410
12524SOL    HW238767   8.171   2.419   2.898  0.2700  0.3705  0.4081
12525SOL     OW38768   3.255   6.228   4.006 -0.0224  0.0284  0.0125
12525SOL    HW138769   3.261   6.253   4.098 -4.7984  0.3716  0.4563
12525SOL    HW238770   3.272   6.310   3.958  0.4996  0.2959  0.6384
12526SOL     OW38771   3.886   7.950   5.071  0.2215  0.3770 -0.1334
12526SOL    HW138772   3.882   7.875   5.011 -1.4317  1.2180 -1.1463
12526SOL    HW238773   3.970   7.940   5.116  0.1064 -1.9997 -0.3233
12527SOL     OW38774   8.021   4.052   1.569  0.8581 -0.0368  0.1947
12527SOL    HW138775   8.093   4.021   1.514  0.3077 -0.7654 -0.1259
12527SOL    HW238776   7.983   4.125   1.521  0.5589 -0.4903 -0.2774
12528SOL     OW38777   5.833   7.601   3.739  0.1455  0.4294 -0.1399
12528SOL    HW138778   5.854   7.637   3.825 -0.4795 -1.3772  0.8328
12528SOL    HW238779   5.789   7.672   3.693 -0.8386  1.0000  1.5729
12529SOL     OW38780   2.341   1.063   5.397 -0.1682 -0.1901  0.0076
12529SOL    HW138781   2.436   1.053   5.387 -0.2700 -0.5018 -0.7030
12529SOL    HW238782   2.304   0.985   5.356 -0.7146 -0.4538  0.9540
12530SOL     OW38783   7.465   0.408   0.064 -0.5450  0.0218  0.2337
12530SOL    HW138784   7.415   0.382  -0.013 -2.0629  1.8741  0.5137
12530SOL    HW238785   7.439   0.346   0.132  0.6168 -1.4659 -0.6360
12531SOL     OW38786   2.264   1.446   6.662  0.4114 -0.0121 -0.2136
12531SOL    HW138787   2.297   1.527   6.702  0.2669  0.4418 -0.9801
12531SOL    HW238788   2.342   1.405   6.625  0.4681 -0.1726  0.0795
12532SOL     OW38789   0.080   6.465   3.861 -0.0794  0.5695 -0.0809
12532SOL    HW138790   0.126   6.544   3.890  1.3328 -0.3449  0.2775
12532SOL    HW238791   0.010   6.454   3.925  0.0178  1.2450  0.1596
12533SOL     OW38792   5.778   1.903   5.659 -0.1620 -0.5584 -0.2989
12533SOL    HW138793   5.788   1.960   5.583 -1.0505  1.7280  1.2051
12533SOL    HW238794   5.844   1.934   5.722 -1.8144  0.0106  1.2209
12534SOL     OW38795   5.541   5.704   1.322 -0.1904 -0.0074  0.7750
12534SOL    HW138796   5.632   5.725   1.302  0.3578  0.9236  3.6407
12534SOL    HW238797   5.501   5.686   1.238  2.3847  0.5989 -0.6925
12535SOL     OW38798   0.352   7.418   3.533 -0.1566  0.4385 -0.2291
12535SOL    HW138799   0.283   7.395   3.596  0.8336 -2.1730 -0.0127
12535SOL    HW238800   0.309   7.411   3.448 -0.2635 -0.8912 -0.0818
12536SOL     OW38801   2.636   4.805   2.040  0.2566 -0.2221  0.0728
12536SOL    HW138802   2.665   4.894   2.019 -1.5260  0.1735 -0.9300
12536SOL    HW238803   2.643   4.758   1.957 -0.0365 -0.6539  0.2932
12537SOL     OW38804   0.513   6.600   2.546 -0.3898  0.1463 -0.1100
12537SOL    HW138805   0.458   6.553   2.484 -1.3915  0.6831  0.3580
12537SOL    HW238806   0.538   6.534   2.611 -0.9051  0.0144 -0.0435
12538SOL     OW38807   2.946   2.671   2.513  0.8294 -0.0619  0.5294
12538SOL    HW138808   2.944   2.594   2.456 -0.8283  0.4420 -0.1721
12538SOL    HW238809   2.947   2.746   2.453  0.1369  0.4639  1.1489
12539SOL     OW38810   7.655   5.641   8.448  0.2095  0.1087  0.0206
12539SOL    HW138811   7.715   5.624   8.521  0.4352  0.9536  0.0417
12539SOL    HW238812   7.569   5.649   8.489  0.0454 -1.2072 -0.0205
12540SOL     OW38813   4.642   4.787   3.135  0.0830  0.4867 -0.2510
12540SOL    HW138814   4.614   4.836   3.212  2.4430  2.2032 -0.3815
12540SOL    HW238815   4.560   4.752   3.099 -1.1286 -0.2340  2.8473
12541SOL     OW38816   7.179   5.751   4.087 -0.2459  0.1366  0.1893
12541SOL    HW138817   7.205   5.738   4.178  1.5568  2.5788  0.1128
12541SOL    HW238818   7.203   5.670   4.043 -0.2712 -0.7175  1.6710
12542SOL     OW38819   0.702   5.835   5.731  0.2431 -0.1616  0.3495
12542SOL    HW138820   0.737   5.759   5.778  3.1710  0.7419 -0.1480
12542SOL    HW238821   0.707   5.907   5.794  0.1030  0.1665 -0.0104
12543SOL     OW38822   4.072   4.241   0.819  0.3525 -0.2566 -0.3831
12543SOL    HW138823   4.101   4.154   0.848  1.0049  0.5073  1.4718
12543SOL    HW238824   4.047   4.285   0.900 -0.3342  1.1669 -1.3337
12544SOL     OW38825   4.206   0.737   3.594  0.4360 -0.3120 -0.2843
12544SOL    HW138826   4.226   0.768   3.682  0.5679  0.7185 -0.6677
12544SOL    HW238827   4.241   0.804   3.535 -1.5730  0.1309 -1.0645
12545SOL     OW38828   4.430   3.231   6.892  0.0575  0.0174  0.2026
12545SOL    HW138829   4.513   3.187   6.873  0.0252  0.6408 -1.5694
12545SOL    HW238830   4.455   3.314   6.932  0.2502 -0.2381  0.6121
12546SOL     OW38831   0.216   3.079   3.921  0.3627  0.0620  0.5724
12546SOL    HW138832   0.141   3.044   3.874 -0.7711  1.1044  1.5304
12546SOL    HW238833   0.261   3.133   3.856 -0.7020  0.8035  0.4183
12547SOL     OW38834   0.285   6.978   5.716 -0.1329 -0.5771  0.0813
12547SOL    HW138835   0.311   6.933   5.635 -0.2741  0.3825 -0.5179
12547SOL    HW238836   0.251   7.062   5.686  0.2035 -0.0342  1.1765
12548SOL     OW38837   4.942   7.700   8.009 -0.7882 -0.1735 -0.2565
12548SOL    HW138838   4.916   7.700   7.917 -0.0853 -0.6876 -0.4566
12548SOL    HW238839   4.973   7.611   8.026 -0.2588  0.1040  0.2893
12549SOL     OW38840   8.551   6.857   5.985  0.3324  0.0295 -0.5123
12549SOL    HW138841   8.538   6.831   5.894 -0.4831  0.2444 -0.4682
12549SOL    HW238842   8.525   6.779   6.036 -0.6157  0.3779 -0.4314
12550SOL     OW38843   2.210   2.720   1.743 -0.7780  0.2236 -0.7304
12550SOL    HW138844   2.117   2.699   1.747 -0.2682 -2.4760 -1.2270
12550SOL    HW238845   2.235   2.701   1.653  0.7962 -2.0195  0.0894
12551SOL     OW38846   4.529   7.998   6.888  0.0638  0.1773  0.4832
12551SOL    HW138847   4.495   8.010   6.800 -0.9111  1.2524  0.9915
12551SOL    HW238848   4.487   7.918   6.920 -0.3171  0.3134  0.3187
12552SOL     OW38849   6.017   1.047   0.151  0.4660  0.5054  0.1544
12552SOL    HW138850   5.983   1.074   0.236 -1.6711 -2.2902  0.3587
12552SOL    HW238851   5.944   1.063   0.090 -0.4031 -2.9869  0.0629
12553SOL     OW38852   2.967   0.194   8.551 -0.1956 -0.2429  0.3189
12553SOL    HW138853   2.925   0.131   8.609  0.9530 -1.6431 -0.3088
12553SOL    HW238854   2.935   0.279   8.581 -1.8558 -1.1032  1.1409
12554SOL     OW38855   8.364   3.476   0.556  0.0858  0.0772 -0.2302
12554SOL    HW138856   8.344   3.413   0.625 -3.1071 -0.2644 -1.2736
12554SOL    HW238857   8.395   3.554   0.603  1.4920 -1.3128  1.2619
12555SOL     OW38858   4.426   0.468   0.115 -0.0862  0.0016  0.3391
12555SOL    HW138859   4.395   0.404   0.051  1.5278 -0.0057 -0.4916
12555SOL    HW238860   4.422   0.422   0.199 -0.8636 -0.4872  0.0430
12556SOL     OW38861   8.567   2.988   5.661  0.1609 -0.3784 -0.4334
12556SOL    HW138862   8.654   3.027   5.650  0.3364 -0.7259 -0.2700
12556SOL    HW238863   8.517   3.020   5.586  0.2348  0.3489 -0.1817
12557SOL     OW38864   2.635   3.740   0.449 -0.3163 -0.4766  0.3964
12557SOL    HW138865   2.567   3.745   0.516  1.0082 -2.4802  2.0464
12557SOL    HW238866   2.628   3.650   0.416  1.0507 -0.4827  0.0864
12558SOL     OW38867   2.683   5.700   2.139  0.2315 -0.7473  0.1066
12558SOL    HW138868   2.606   5.650   2.168  0.1586 -0.5260  0.3030
12558SOL    HW238869   2.741   5.635   2.099 -1.3383 -0.5313 -2.7826
12559SOL     OW38870   5.426   3.922   3.317 -0.1045 -0.7094 -0.6150
12559SOL    HW138871   5.477   3.966   3.385 -0.7775 -1.3214  0.3169
12559SOL    HW238872   5.340   3.909   3.356 -0.0252 -2.5759 -0.9439
12560SOL     OW38873   5.703   1.533   7.786 -0.1834  0.1471  0.4480
12560SOL    HW138874   5.733   1.470   7.721 -2.1885 -0.4685  0.0529
12560SOL    HW238875   5.725   1.618   7.749 -0.0182 -0.2447 -0.3743
12561SOL     OW38876   6.910   1.468   0.092  0.1497 -0.3549 -0.3430
12561SOL    HW138877   6.997   1.497   0.119 -0.2433  1.6640 -1.0415
12561SOL    HW238878   6.924   1.429   0.005  0.0648  2.7270 -1.8892
12562SOL     OW38879   5.435   2.975   6.012  0.5164 -0.0193  0.1982
12562SOL    HW138880   5.375   2.952   6.083  0.3491  1.3615  0.5332
12562SOL    HW238881   5.514   2.923   6.029  0.6797  0.6660  1.7215
12563SOL     OW38882   1.262   1.451   1.655  0.0052 -0.3700 -0.0514
12563SOL    HW138883   1.243   1.539   1.622 -1.3951 -0.0531  1.4655
12563SOL    HW238884   1.352   1.457   1.689  0.4608  0.0363 -1.2809
12564SOL     OW38885   0.974   1.474   1.557  0.1866 -0.1703 -0.3601
12564SOL    HW138886   0.919   1.411   1.603 -0.9349  0.3610 -0.9142
12564SOL    HW238887   1.057   1.473   1.603 -0.3659 -0.8457  0.6443
12565SOL     OW38888   0.709   1.961   2.252  0.6613  0.9160  0.2719
12565SOL    HW138889   0.717   1.982   2.159 -0.6573  0.5782  0.0771
12565SOL    HW238890   0.723   1.867   2.257 -0.6977  0.6958  0.2183
12566SOL     OW38891   4.622   0.160   4.430 -0.1338 -0.0155 -0.1039
12566SOL    HW138892   4.610   0.182   4.337 -0.6774 -0.7781 -0.2205
12566SOL    HW238893   4.550   0.205   4.475 -0.1933 -0.0951 -0.1197
12567SOL     OW38894   6.698   5.921   3.309 -0.6429 -0.3105  0.8044
12567SOL    HW138895   6.775   5.961   3.348 -0.2946 -0.5464  0.3751
12567SOL    HW238896   6.633   5.991   3.306 -0.8424 -0.4100  2.2333
12568SOL     OW38897   0.456   1.106   5.758 -0.2650 -0.2053 -0.3042
12568SOL    HW138898   0.499   1.135   5.678 -2.1588 -1.0276 -1.6935
12568SOL    HW238899   0.464   1.180   5.818  2.2616 -0.0274 -0.7644
12569SOL     OW38900   7.410   6.101   8.568  0.1370  0.4312  0.7080
12569SOL    HW138901   7.471   6.041   8.611  2.2720  2.5387  0.8170
12569SOL    HW238902   7.411   6.074   8.476  1.7671  0.7731  0.5872
12570SOL     OW38903   1.190   4.544   0.704 -0.0791 -0.0868 -0.1252
12570SOL    HW138904   1.236   4.466   0.735 -0.4163 -0.0599  0.4441
12570SOL    HW238905   1.103   4.538   0.744 -1.2010 -1.0194 -2.4834
12571SOL     OW38906   4.662   8.253   2.876  0.0496 -0.2443 -0.2769
12571SOL    HW138907   4.661   8.261   2.971 -0.5340 -0.5074 -0.2587
12571SOL    HW238908   4.743   8.297   2.849 -0.0210  0.2495  0.2984
12572SOL     OW38909   0.712   0.407   7.197  0.5496  0.4793 -0.4090
12572SOL    HW138910   0.632   0.359   7.175  0.5550  0.6965 -0.9039
12572SOL    HW238911   0.783   0.349   7.169  0.5898 -0.1010  0.8247
12573SOL     OW38912   7.082   2.883   7.088  0.0534  0.1548 -0.2443
12573SOL    HW138913   7.012   2.880   7.023  0.1735  0.3204 -0.3826
12573SOL    HW238914   7.040   2.914   7.168 -0.2411 -0.7366 -0.0461
12574SOL     OW38915   1.607   6.197   0.249  0.0542 -0.4268 -0.5000
12574SOL    HW138916   1.565   6.147   0.320  0.1723 -0.0389 -0.1557
12574SOL    HW238917   1.562   6.281   0.248  1.3266  0.3021  0.4014
12575SOL     OW38918   7.188   4.747   8.390 -0.2999 -0.0860 -0.3270
12575SOL    HW138919   7.150   4.835   8.387 -0.9161 -0.3434 -0.1654
12575SOL    HW238920   7.128   4.697   8.444 -0.5644 -0.9034 -1.3455
12576SOL     OW38921   3.670   8.183   3.738  0.2920 -0.2031  0.0517
12576SOL    HW138922   3.712   8.135   3.810  1.4155  0.0208 -0.4211
12576SOL    HW238923   3.744   8.216   3.686 -0.4873 -0.0699 -1.0057
12577SOL     OW38924   4.243   4.285   2.367 -0.2163 -0.5294  0.3104
12577SOL    HW138925   4.213   4.274   2.457  0.5577  3.1512  1.2114
12577SOL    HW238926   4.338   4.296   2.375  0.2660 -2.7298 -1.3549
12578SOL     OW38927   7.867   5.693   6.601 -0.0989 -0.6791  0.4630
12578SOL    HW138928   7.777   5.661   6.600 -0.9598  1.5459  0.2583
12578SOL    HW238929   7.905   5.661   6.520 -0.0045 -3.3438  1.4635
12579SOL     OW38930   3.809   0.445   2.053  0.3459 -0.1730  0.1731
12579SOL    HW138931   3.769   0.420   1.970  0.6037 -1.6411  0.4788
12579SOL    HW238932   3.850   0.530   2.035 -0.3650 -0.0384 -0.9371
12580SOL     OW38933   8.404   6.414   3.714 -0.0388 -0.4458 -0.1897
12580SOL    HW138934   8.467   6.480   3.686 -0.4261  0.2668  0.5853
12580SOL    HW238935   8.329   6.427   3.656 -0.8815  1.0983  1.2034
12581SOL     OW38936   6.106   1.133   4.078 -0.5199 -0.1194 -0.3782
12581SOL    HW138937   6.089   1.080   4.156  2.1373 -1.1954 -0.4342
12581SOL    HW238938   6.080   1.076   4.005 -1.0038  0.0696 -0.3602
12582SOL     OW38939   2.602   1.504   2.917  0.3396 -0.0097 -0.3249
12582SOL    HW138940   2.556   1.463   2.990  1.8637  0.8692  1.2157
12582SOL    HW238941   2.549   1.581   2.894  0.1497  0.0391  0.2694
12583SOL     OW38942   2.779   6.501   3.391  0.1939  0.1924 -0.3663
12583SOL    HW138943   2.825   6.422   3.363 -0.3505  0.6101 -2.6034
12583SOL    HW238944   2.686   6.479   3.387  0.0420  0.8611 -0.7769
12584SOL     OW38945   4.255   5.644   4.910 -0.1066 -0.3833 -0.5135
12584SOL    HW138946   4.289   5.718   4.860 -0.6296 -0.3411 -0.8196
12584SOL    HW238947   4.213   5.588   4.844  0.2734 -0.9458 -0.2836
12585SOL     OW38948   2.408   7.042   8.048 -0.4322  0.7280 -0.1055
12585SOL    HW138949   2.366   6.980   8.108 -1.2154  0.6878 -0.6781
12585SOL    HW238950   2.499   7.046   8.078 -0.4751 -0.3496  0.2242
12586SOL     OW38951   2.431   0.081   7.826 -0.0677  0.0136 -0.0484
12586SOL    HW138952   2.521   0.061   7.802 -0.0949 -0.2607  0.0806
12586SOL    HW238953   2.377   0.028   7.767 -0.1336 -0.8257  0.7429
12587SOL     OW38954   7.787   4.146   6.482 -0.3172  0.2019 -0.0306
12587SOL    HW138955   7.820   4.221   6.432  0.4772 -0.0013  0.1705
12587SOL    HW238956   7.865   4.093   6.499 -0.6727 -0.0322  0.9159
12588SOL     OW38957   6.805   4.487   2.994 -0.2730  0.2431 -0.0970
12588SOL    HW138958   6.870   4.476   3.063 -0.5419  1.7150  0.4235
12588SOL    HW238959   6.722   4.497   3.041 -0.6015  0.2976 -0.6734
12589SOL     OW38960   6.701   5.645   4.941 -0.4772 -0.2305 -0.0796
12589SOL    HW138961   6.648   5.651   5.020  1.1633 -0.4563  1.1093
12589SOL    HW238962   6.736   5.555   4.943  0.8544  0.2578 -0.1580
12590SOL     OW38963   6.106   5.261   0.961 -0.1122  0.0880  0.1948
12590SOL    HW138964   6.101   5.309   0.878  1.9357  0.5576  0.2793
12590SOL    HW238965   6.177   5.198   0.947  0.2212  0.1349  1.5445
12591SOL     OW38966   0.660   4.334   5.667  0.0869  0.4442 -0.9142
12591SOL    HW138967   0.587   4.303   5.613  1.4927 -2.9384 -1.1421
12591SOL    HW238968   0.726   4.361   5.604 -0.0386  1.1760 -0.7444
12592SOL     OW38969   2.194   6.815   5.336 -0.5922 -0.2930 -0.4065
12592SOL    HW138970   2.105   6.815   5.370 -0.3914  1.8339  0.3120
12592SOL    HW238971   2.245   6.864   5.401  0.8561 -0.4352 -1.3732
12593SOL     OW38972   4.093   7.600   4.584  0.2713  0.0190  0.0415
12593SOL    HW138973   4.144   7.590   4.664  0.7949 -0.5978 -0.3597
12593SOL    HW238974   4.133   7.674   4.539  0.7049 -0.3503 -0.1868
12594SOL     OW38975   5.587   5.911   5.775  0.0733 -0.2465  0.2697
12594SOL    HW138976   5.609   5.845   5.841 -0.9345  1.7558  2.8099
12594SOL    HW238977   5.516   5.962   5.815  1.6322  3.1686 -0.8758
12595SOL     OW38978   3.391   3.773   1.852  0.1524 -0.3324  0.2765
12595SOL    HW138979   3.453   3.707   1.883  0.1470  0.1711  1.3958
12595SOL    HW238980   3.335   3.790   1.927 -0.6199  0.0606 -0.3797
12596SOL     OW38981   1.712   3.799   5.089  0.9235  0.1074  0.2209
12596SOL    HW138982   1.763   3.880   5.083  0.3650  0.4097 -0.5892
12596SOL    HW238983   1.776   3.730   5.076  1.0835  0.5003 -1.2965
12597SOL     OW38984   8.544   3.626   0.756  0.0508  0.1235  0.3326
12597SOL    HW138985   8.569   3.645   0.847 -0.7560  2.3717  0.1584
12597SOL    HW238986   8.511   3.709   0.723  1.0235 -0.4408 -2.2834
12598SOL     OW38987   6.039   8.096   4.181  0.5197  0.2621  0.0688
12598SOL    HW138988   6.112   8.040   4.159 -1.0110 -0.7857 -2.8498
12598SOL    HW238989   6.068   8.184   4.157  1.0746 -0.0248 -0.3242
12599SOL     OW38990   6.997   4.018   8.435  0.6110 -0.6659  0.6303
12599SOL    HW138991   6.915   4.011   8.386  0.6506  0.3824  0.3720
12599SOL    HW238992   7.050   3.945   8.403  0.6511  0.0084 -0.9562
12600SOL     OW38993   0.984   4.017   4.375 -0.1355 -0.2149 -0.0552
12600SOL    HW138994   0.939   3.946   4.329 -0.1059  0.6538 -1.4721
12600SOL    HW238995   0.987   3.987   4.466  0.1686 -2.1872 -0.6475
12601SOL     OW38996   8.601   3.258   3.663 -0.0363  0.3577  0.0611
12601SOL    HW138997   8.613   3.303   3.579 -0.4112  1.0727  0.3779
12601SOL    HW238998   8.636   3.319   3.728  1.3314 -0.6821  0.3427
12602SOL     OW38999   7.560   4.222   6.948  0.4221 -0.5595  0.5665
12602SOL    HW139000   7.618   4.193   7.019 -0.6823  0.4551  1.9511
12602SOL    HW239001   7.475   4.184   6.971 -0.1882  0.6783  0.3881
12603SOL     OW39002   2.697   6.790   3.436  0.0306 -0.3451  0.4227
12603SOL    HW139003   2.662   6.873   3.469  1.9244  2.4993 -3.7972
12603SOL    HW239004   2.623   6.750   3.389 -0.8953 -1.2134  2.4964
12604SOL     OW39005   2.945   4.652   2.831  0.6783 -0.3912  0.1932
12604SOL    HW139006   3.019   4.695   2.874 -0.0049  1.7139 -0.5820
12604SOL    HW239007   2.910   4.719   2.771 -0.3085 -2.1544 -1.3177
12605SOL     OW39008   4.885   2.118   5.414  0.4440 -0.3247  0.2131
12605SOL    HW139009   4.958   2.117   5.351  0.7140  0.7269  0.4982
12605SOL    HW239010   4.832   2.042   5.390 -0.8991  1.4169 -2.9679
12606SOL     OW39011   6.513   5.623   4.694  0.1278  0.3117  0.3624
12606SOL    HW139012   6.510   5.658   4.783 -0.2312  1.2675 -0.0150
12606SOL    HW239013   6.501   5.699   4.638 -0.5521 -0.4025 -0.4839
12607SOL     OW39014   5.141   2.623   7.806  0.2721 -0.1343  0.7285
12607SOL    HW139015   5.115   2.575   7.727  2.4893 -0.2925  0.0155
12607SOL    HW239016   5.090   2.704   7.802 -2.7772 -1.8648  1.4119
12608SOL     OW39017   4.364   1.524   5.672 -0.2468 -0.2767  0.0182
12608SOL    HW139018   4.319   1.474   5.740  0.8663  0.6959  1.5372
12608SOL    HW239019   4.294   1.571   5.626 -0.8830  1.5334  2.5849
12609SOL     OW39020   3.456   5.033   4.513 -0.2631  0.3701  0.3902
12609SOL    HW139021   3.464   5.041   4.418 -0.7292 -1.6006  0.1311
12609SOL    HW239022   3.363   5.050   4.531  0.2443  3.0825  0.8425
12610SOL     OW39023   7.702   8.471   5.337 -0.3696 -0.0191  0.1423
12610SOL    HW139024   7.765   8.449   5.268 -0.1953  1.5129 -0.2150
12610SOL    HW239025   7.630   8.515   5.291 -0.5465  0.4488  0.8560
12611SOL     OW39026   3.771   4.387   6.015 -0.0846 -0.1461 -0.3981
12611SOL    HW139027   3.847   4.437   6.045 -1.6246  1.3842  1.2047
12611SOL    HW239028   3.741   4.432   5.936 -0.3008  0.2802 -0.0756
12612SOL     OW39029   5.626   1.688   1.465 -0.0062 -0.8903 -0.0965
12612SOL    HW139030   5.650   1.781   1.467 -0.3504 -0.7060 -2.1500
12612SOL    HW239031   5.530   1.688   1.460  0.0392 -1.2254 -1.9630
12613SOL     OW39032   3.372   2.852   7.066 -0.1979  0.5429 -0.3313
12613SOL    HW139033   3.317   2.774   7.078  0.9039 -0.1564  0.3530
12613SOL    HW239034   3.439   2.845   7.135  0.7347  1.3791 -1.1234
12614SOL     OW39035   1.460   1.556   0.431  0.1574 -0.0824  0.6427
12614SOL    HW139036   1.515   1.479   0.421 -0.5440 -0.5931  0.6815
12614SOL    HW239037   1.520   1.624   0.462  0.7767 -0.6096  0.6221
12615SOL     OW39038   0.527   3.108   0.700  0.2130  0.8318  0.0012
12615SOL    HW139039   0.469   3.149   0.764  0.4893  0.3177  0.5869
12615SOL    HW239040   0.474   3.101   0.621 -0.1718  1.3546  0.2097
12616SOL     OW39041   2.279   4.438   3.971  0.4056 -0.4080  0.2390
12616SOL    HW139042   2.224   4.501   4.018  1.1729  0.0709  0.5151
12616SOL    HW239043   2.252   4.352   4.004 -1.7949 -0.4003 -1.3123
12617SOL     OW39044   7.359   2.463   6.191 -0.5119  0.5726 -0.2615
12617SOL    HW139045   7.265   2.456   6.204 -0.3727 -0.8823  0.1900
12617SOL    HW239046   7.395   2.387   6.237  0.7783  0.4290 -1.4428
12618SOL     OW39047   5.542   0.565   3.511  0.3058  0.1443  0.4815
12618SOL    HW139048   5.462   0.617   3.517  1.5592  2.1138  1.1598
12618SOL    HW239049   5.538   0.506   3.587 -1.1666 -0.8525 -0.3272
12619SOL     OW39050   6.617   0.471   8.400  0.7311  0.0804  0.3057
12619SOL    HW139051   6.537   0.506   8.358  0.6882 -0.7228 -0.3047
12619SOL    HW239052   6.681   0.541   8.389 -0.0426  0.9865  1.3353
12620SOL     OW39053   4.540   0.899   1.119 -0.0055  0.3142 -0.0756
12620SOL    HW139054   4.507   0.946   1.195  1.7264  0.2298  0.7737
12620SOL    HW239055   4.520   0.957   1.045 -1.5881  0.4593  0.4103
12621SOL     OW39056   6.848   1.275   0.273 -0.3057  0.2207 -0.3377
12621SOL    HW139057   6.862   1.340   0.204 -0.1549 -0.3658 -0.8697
12621SOL    HW239058   6.844   1.191   0.227 -0.4113 -0.1617  0.3480
12622SOL     OW39059   3.837   0.336   0.378  0.2333 -0.6427 -0.6209
12622SOL    HW139060   3.783   0.415   0.388  0.2310 -0.6601 -0.4987
12622SOL    HW239061   3.822   0.286   0.458  0.8918 -0.3680 -0.3249
12623SOL     OW39062   2.836   2.859   6.599 -0.7536  0.2532  0.7705
12623SOL    HW139063   2.865   2.878   6.510 -1.1691 -1.5836  0.2080
12623SOL    HW239064   2.916   2.857   6.651 -0.3864  0.0747  0.1951
12624SOL     OW39065   2.427   8.327   5.394 -0.2400 -0.0075  0.7910
12624SOL    HW139066   2.507   8.377   5.375 -0.7587  0.0671 -1.4596
12624SOL    HW239067   2.443   8.289   5.480  2.2277  0.0338  0.4259
12625SOL     OW39068   8.044   2.884   6.578  0.1438  0.3160 -0.4118
12625SOL    HW139069   8.062   2.915   6.666 -1.5321  0.1140  0.0419
12625SOL    HW239070   7.949   2.890   6.569  0.0804 -1.4937 -1.4986
12626SOL     OW39071   2.890   5.103   0.618  0.2357  1.4053  0.0251
12626SOL    HW139072   2.843   5.100   0.535 -1.9206 -1.6317  1.1811
12626SOL    HW239073   2.958   5.036   0.610 -1.5910 -0.7610  1.4322
12627SOL     OW39074   7.459   0.184   5.063 -0.2398 -0.1585 -0.0641
12627SOL    HW139075   7.464   0.279   5.048 -1.2749  0.1555  1.3237
12627SOL    HW239076   7.433   0.176   5.155 -1.3286 -1.7618 -0.4731
12628SOL     OW39077   6.010   6.860   4.758  0.0060  0.1817 -0.3137
12628SOL    HW139078   6.021   6.944   4.714 -1.2681  1.3344  1.4767
12628SOL    HW239079   5.916   6.845   4.759  0.1792 -1.0345 -0.1515
12629SOL     OW39080   7.257   4.484   0.955  0.0030 -0.0150 -0.1751
12629SOL    HW139081   7.288   4.482   0.865  1.0232 -1.1107  0.1830
12629SOL    HW239082   7.206   4.565   0.960  0.4918  0.4174 -1.5406
12630SOL     OW39083   2.798   3.681   5.965 -0.3109 -0.2218 -0.0928
12630SOL    HW139084   2.780   3.609   5.904 -0.3611 -0.4689  0.2079
12630SOL    HW239085   2.892   3.697   5.955 -0.6614  1.0455 -1.6340
12631SOL     OW39086   7.406   3.659   2.626 -0.6732 -0.0833 -0.6302
12631SOL    HW139087   7.483   3.664   2.569  1.4412 -0.7768  1.9425
12631SOL    HW239088   7.363   3.744   2.615 -0.8037 -0.4394 -3.6944
12632SOL     OW39089   2.400   5.545   3.152 -0.1632  0.0062 -0.7178
12632SOL    HW139090   2.492   5.560   3.131  0.1382  0.2535  0.6994
12632SOL    HW239091   2.364   5.632   3.168 -0.1281 -0.2167  0.6971
12633SOL     OW39092   1.166   5.691   5.308 -0.0269  0.0923 -0.0560
12633SOL    HW139093   1.245   5.641   5.331 -0.4750 -0.1528  0.9735
12633SOL    HW239094   1.094   5.631   5.325 -0.6081  1.2064  1.6351
12634SOL     OW39095   6.534   7.491   4.345 -0.0413  0.1843 -0.3217
12634SOL    HW139096   6.564   7.576   4.378 -0.2832  0.1750 -0.0695
12634SOL    HW239097   6.554   7.429   4.415  1.7823 -0.3019 -1.2136
12635SOL     OW39098   6.561   4.277   3.471  0.0083 -0.3610 -0.7255
12635SOL    HW139099   6.613   4.251   3.395 -1.0168 -2.6497 -0.7391
12635SOL    HW239100   6.471   4.259   3.445 -0.3836 -0.9430  0.9073
12636SOL     OW39101   6.487   2.422   2.307 -0.6413  0.2627  0.1555
12636SOL    HW139102   6.562   2.365   2.322 -0.3413  0.6369  0.1073
12636SOL    HW239103   6.446   2.431   2.393 -1.2893 -0.8318 -0.0201
12637SOL     OW39104   7.541   3.540   7.501 -0.0766 -0.3637 -0.1224
12637SOL    HW139105   7.625   3.497   7.519  0.4943  0.5680 -0.4595
12637SOL    HW239106   7.533   3.538   7.406 -1.0783 -1.5952 -0.0315
12638SOL     OW39107   5.014   3.953   2.703  0.2008  0.3395  0.2834
12638SOL    HW139108   4.988   3.863   2.684  1.1077  0.3506 -1.2043
12638SOL    HW239109   4.934   4.004   2.689  0.4842  0.1713 -2.5479
12639SOL     OW39110   2.935   8.291   0.658  0.1709 -0.1343 -0.7166
12639SOL    HW139111   2.982   8.240   0.725  1.2448 -1.6670 -2.5335
12639SOL    HW239112   2.995   8.293   0.583 -0.2881  2.9687 -1.1381
12640SOL     OW39113   6.876   2.018   0.108  0.0354 -0.6281 -0.8818
12640SOL    HW139114   6.942   2.031   0.176  0.5307 -0.7930 -1.3215
12640SOL    HW239115   6.834   2.103   0.098  1.1441 -0.1430 -1.5793
12641SOL     OW39116   7.882   2.923   1.849  0.2255 -0.0925 -0.4675
12641SOL    HW139117   7.881   2.934   1.754  0.4134  1.4365 -0.3110
12641SOL    HW239118   7.828   2.846   1.864 -0.8936  0.4096 -1.7262
12642SOL     OW39119   4.437   2.363   0.781  0.0561  0.4551  0.4930
12642SOL    HW139120   4.501   2.328   0.843  0.7133 -2.3129 -1.5719
12642SOL    HW239121   4.482   2.437   0.739  0.3811  1.0097  1.7619
12643SOL     OW39122   3.667   8.102   0.207  0.0760  0.1504 -0.0714
12643SOL    HW139123   3.697   8.011   0.217 -0.5523  0.0826  1.3964
12643SOL    HW239124   3.668   8.137   0.296  0.4179  1.6329 -0.6348
12644SOL     OW39125   3.287   6.872   1.102 -0.5184  0.0633  0.3161
12644SOL    HW139126   3.236   6.845   1.026 -0.5912 -3.0599  1.3235
12644SOL    HW239127   3.256   6.961   1.121  0.3573  1.4640 -3.8671
12645SOL     OW39128   6.616   5.148   4.730  0.1619 -0.2769  0.0428
12645SOL    HW139129   6.580   5.236   4.743  0.2131 -0.3871  0.9902
12645SOL    HW239130   6.557   5.107   4.666  0.0296  0.3739 -0.2632
12646SOL     OW39131   5.072   8.274   3.050  0.0379  0.4621 -0.4127
12646SOL    HW139132   4.993   8.277   3.104 -0.6975 -0.0628 -1.4156
12646SOL    HW239133   5.122   8.352   3.076 -1.3429  1.4325 -0.5495
12647SOL     OW39134   0.460   4.551   0.794 -0.3567 -0.4870  0.0099
12647SOL    HW139135   0.394   4.483   0.782 -1.6891  0.8168 -0.4287
12647SOL    HW239136   0.416   4.619   0.845  0.6231  0.4344 -0.3235
12648SOL     OW39137   6.906   1.403   5.040 -0.1457  0.2754  0.5921
12648SOL    HW139138   6.852   1.382   4.964  0.9325  1.0451 -0.4204
12648SOL    HW239139   6.936   1.318   5.072  0.5618  0.0010 -0.7420
12649SOL     OW39140   5.423   6.131   0.415 -0.6410  0.6229 -0.4538
12649SOL    HW139141   5.512   6.151   0.446 -0.7981  2.2716 -0.9609
12649SOL    HW239142   5.425   6.155   0.322 -1.3660 -0.1943 -0.6872
12650SOL     OW39143   6.522   0.648   1.592 -0.2012  0.0828  0.1431
12650SOL    HW139144   6.612   0.617   1.601 -0.3803 -0.6085 -0.3497
12650SOL    HW239145   6.493   0.613   1.508 -1.5200 -1.2389  1.0889
12651SOL     OW39146   1.011   3.740   6.577  0.4644  0.8133  0.3807
12651SOL    HW139147   0.999   3.809   6.511 -0.6381  1.5811  1.3250
12651SOL    HW239148   1.098   3.705   6.561  0.0611  0.6402 -1.7792
12652SOL     OW39149   6.545   6.394   4.401 -0.0348 -0.1406 -0.0634
12652SOL    HW139150   6.486   6.324   4.374 -2.0555  1.4538 -0.0513
12652SOL    HW239151   6.581   6.428   4.319  0.0370 -0.4235 -0.1501
12653SOL     OW39152   5.085   0.555   3.637  0.2598  0.7939 -0.1905
12653SOL    HW139153   5.104   0.593   3.723  1.3384  0.4015 -0.2432
12653SOL    HW239154   4.990   0.544   3.636  0.1835  1.2858  0.7416
12654SOL     OW39155   0.629   2.255   6.944  0.0731  0.2578  0.3479
12654SOL    HW139156   0.615   2.251   7.038 -0.3662  1.0949  0.3250
12654SOL    HW239157   0.595   2.171   6.911  0.0494  0.0466  0.9046
12655SOL     OW39158   0.261   0.174   8.046  0.4723 -0.1015 -0.0287
12655SOL    HW139159   0.292   0.220   7.968 -0.4816  0.4248 -0.1067
12655SOL    HW239160   0.336   0.121   8.074  0.6248 -0.8158 -1.6793
12656SOL     OW39161   8.173   0.621   2.562  0.0673 -0.0896 -1.1888
12656SOL    HW139162   8.114   0.694   2.542  0.0226  0.0681 -0.4880
12656SOL    HW239163   8.153   0.556   2.495 -0.3927  0.2504 -1.3916
12657SOL     OW39164   6.567   3.706   4.850  0.1047 -0.1764  0.4734
12657SOL    HW139165   6.532   3.756   4.924  1.1558 -2.3849  2.5880
12657SOL    HW239166   6.650   3.751   4.830 -0.6207  0.9902 -0.0340
12658SOL     OW39167   5.951   4.234   3.479 -0.1867 -0.5590  0.1988
12658SOL    HW139168   5.985   4.323   3.490 -0.4361 -0.4078 -0.2598
12658SOL    HW239169   6.023   4.177   3.508  0.4114 -0.2422 -0.6217
12659SOL     OW39170   4.730   6.654   5.124  0.3979  0.1740 -0.0821
12659SOL    HW139171   4.645   6.692   5.100  0.0575 -1.1456 -1.1389
12659SOL    HW239172   4.712   6.604   5.203  0.1782 -0.1001 -0.3014
12660SOL     OW39173   7.707   8.131   8.545 -0.0785  0.8609 -0.1646
12660SOL    HW139174   7.667   8.099   8.627 -0.0321 -0.6751 -0.7089
12660SOL    HW239175   7.687   8.224   8.544  0.6373  1.0911  2.0113
12661SOL     OW39176   5.774   7.188   1.324  0.8581 -0.4189  0.1704
12661SOL    HW139177   5.769   7.282   1.311  2.1594 -0.5425 -1.6868
12661SOL    HW239178   5.865   7.172   1.350  1.0564 -1.2618 -0.9387
12662SOL     OW39179   6.260   5.882   0.797  0.3723 -0.4289  0.3806
12662SOL    HW139180   6.337   5.857   0.745  1.0719  2.8882 -0.4084
12662SOL    HW239181   6.294   5.889   0.887  0.5337 -0.7480  0.3471
12663SOL     OW39182   2.325   6.687   4.829  0.7531  0.2089 -0.4470
12663SOL    HW139183   2.241   6.690   4.782 -0.0617 -1.2829  0.8163
12663SOL    HW239184   2.307   6.730   4.912  1.4269  0.4538 -0.4286
12664SOL     OW39185   3.857   1.278   1.229  0.2625 -0.5538  0.2112
12664SOL    HW139186   3.918   1.340   1.269 -1.0047 -0.1720  1.6761
12664SOL    HW239187   3.874   1.195   1.272  1.2793 -1.0274 -1.0390
12665SOL     OW39188   0.570   1.828   6.675 -0.1217  0.1922 -0.2932
12665SOL    HW139189   0.521   1.853   6.596  1.6507  0.9655 -1.1981
12665SOL    HW239190   0.648   1.785   6.642 -1.3836 -3.6780  1.1564
12666SOL     OW39191   2.309   3.896   4.788  0.3021  0.7221  0.4776
12666SOL    HW139192   2.340   3.984   4.764  2.4972 -0.2278 -0.4304
12666SOL    HW239193   2.352   3.878   4.872 -0.5366  0.6736  0.9084
12667SOL     OW39194   1.255   0.837   6.444 -0.0129  0.4779 -0.4566
12667SOL    HW139195   1.207   0.813   6.364  0.1402  0.9528 -0.6948
12667SOL    HW239196   1.187   0.864   6.505 -0.1421 -0.0131 -0.3736
12668SOL     OW39197   3.441   0.977   7.924 -0.7799 -0.2989 -0.1782
12668SOL    HW139198   3.360   1.027   7.925  0.6362  2.3228  3.0004
12668SOL    HW239199   3.494   1.018   7.856 -0.7035  0.6778  0.4506
12669SOL     OW39200   4.551   5.807   2.121 -0.8641 -0.0900 -0.5628
12669SOL    HW139201   4.458   5.812   2.100 -0.2858  1.9977 -3.2251
12669SOL    HW239202   4.579   5.899   2.127  0.6664 -0.6335  2.3962
12670SOL     OW39203   6.715   5.155   5.049 -0.2121  0.3319  0.0491
12670SOL    HW139204   6.756   5.118   4.971 -1.0913  0.1167 -0.3268
12670SOL    HW239205   6.756   5.109   5.122  0.5163  0.4303 -0.2845
12671SOL     OW39206   0.054   7.319   8.070  0.1198  0.1837  0.1682
12671SOL    HW139207   0.122   7.341   8.134  1.0630 -1.3022 -0.2614
12671SOL    HW239208  -0.027   7.318   8.121  0.5693  0.9470  0.9184
12672SOL     OW39209   0.170   2.566   7.253 -0.1799 -0.0449 -0.1261
12672SOL    HW139210   0.252   2.518   7.267 -0.0114 -0.2350 -1.5956
12672SOL    HW239211   0.182   2.649   7.300  0.9893  0.0648 -0.5853
12673SOL     OW39212   3.286   5.413   8.589  0.0047  0.5529  0.6476
12673SOL    HW139213   3.191   5.412   8.604  0.1718  0.6588  1.7478
12673SOL    HW239214   3.309   5.321   8.577 -0.7360  0.6720 -3.1993
12674SOL     OW39215   1.140   2.651   5.749  0.5505 -0.4778  0.2537
12674SOL    HW139216   1.121   2.574   5.696  0.8643 -0.3288 -0.0753
12674SOL    HW239217   1.056   2.674   5.790  0.5962 -1.3854  0.8749
12675SOL     OW39218   0.108   4.732   5.653 -0.1207  0.4285  0.4466
12675SOL    HW139219   0.013   4.747   5.645 -0.1443  0.5038  0.8547
12675SOL    HW239220   0.143   4.814   5.686 -0.1055 -0.0477  1.6493
12676SOL     OW39221   1.945   6.832   2.297  0.3879 -0.1660 -0.0898
12676SOL    HW139222   1.882   6.776   2.252  1.7284 -2.4544  0.7512
12676SOL    HW239223   2.017   6.843   2.235  0.9334 -0.8903  0.4074
12677SOL     OW39224   0.002   2.003   0.205  0.1852  0.3813 -0.3849
12677SOL    HW139225  -0.081   1.955   0.206 -0.1454  0.8637  1.9553
12677SOL    HW239226  -0.019   2.087   0.163 -0.9563  1.1055  1.4961
12678SOL     OW39227   4.001   0.525   7.898 -0.0897 -0.2637 -0.0304
12678SOL    HW139228   3.927   0.580   7.925 -0.6336 -0.3194 -1.3644
12678SOL    HW239229   4.059   0.526   7.974  0.3003  2.8116 -0.2145
12679SOL     OW39230   5.190   7.103   2.744  0.1133  0.1160  0.1349
12679SOL    HW139231   5.231   7.169   2.688  2.0410 -1.0045  0.1151
12679SOL    HW239232   5.264   7.056   2.783 -1.1912 -1.3048  1.0219
12680SOL     OW39233   2.252   2.775   8.529  0.1740  0.4717 -0.5509
12680SOL    HW139234   2.291   2.748   8.612  0.3217 -1.1405 -1.1151
12680SOL    HW239235   2.295   2.858   8.508 -0.1372  1.1098  1.1396
12681SOL     OW39236   6.271   0.715   3.407  0.3043  0.6443  0.2079
12681SOL    HW139237   6.274   0.756   3.493 -1.7239  0.1197  0.5802
12681SOL    HW239238   6.178   0.712   3.385  0.7999  1.4500 -2.3533
12682SOL     OW39239   6.127   1.577   2.832  0.5247  0.1678  1.0528
12682SOL    HW139240   6.165   1.497   2.796  0.6867  1.0126 -0.7318
12682SOL    HW239241   6.161   1.581   2.922  2.4214 -0.5540  0.4099
12683SOL     OW39242   7.760   6.035   0.891  0.5434 -0.1883  0.3388
12683SOL    HW139243   7.820   6.032   0.816  0.2257  2.6234 -0.1319
12683SOL    HW239244   7.798   5.975   0.954  0.8031 -2.7195 -2.0254
12684SOL     OW39245   6.499   4.301   6.364 -0.0133  0.1605  0.2655
12684SOL    HW139246   6.552   4.263   6.434  1.5019  0.1514 -0.8263
12684SOL    HW239247   6.494   4.394   6.386 -0.3928 -0.0008  0.8884
12685SOL     OW39248   5.526   2.332   8.244 -0.6476 -0.2549  0.1478
12685SOL    HW139249   5.575   2.390   8.302  1.6436 -1.4681 -0.4752
12685SOL    HW239250   5.558   2.354   8.156 -2.6835  0.2536 -0.5178
12686SOL     OW39251   4.890   3.440   1.236  0.4968 -0.6564  0.4534
12686SOL    HW139252   4.818   3.468   1.180  0.3019  1.3711  1.6294
12686SOL    HW239253   4.905   3.348   1.211 -1.1166 -0.5316 -1.2233
12687SOL     OW39254   4.699   3.894   6.850 -0.2235 -0.1522 -0.1987
12687SOL    HW139255   4.642   3.950   6.902  1.1760  0.7867  0.3939
12687SOL    HW239256   4.767   3.953   6.817  0.7433 -1.3247 -0.3727
12688SOL     OW39257   1.067   4.674   3.587 -0.2347  0.1506  0.1256
12688SOL    HW139258   1.055   4.738   3.657 -0.6868 -0.8357  0.9750
12688SOL    HW239259   1.065   4.726   3.507 -1.3384  1.1058  0.7440
12689SOL     OW39260   5.601   1.311   8.449 -0.7612  0.1844  0.2481
12689SOL    HW139261   5.552   1.266   8.380 -0.7475 -0.6115  0.7521
12689SOL    HW239262   5.549   1.389   8.468 -1.0451  0.1300 -0.2814
12690SOL     OW39263   7.645   5.828   1.611  0.4352 -0.3763  0.3195
12690SOL    HW139264   7.691   5.858   1.689  1.2806  0.3516 -0.4245
12690SOL    HW239265   7.681   5.741   1.593  0.6426 -0.3147  0.4359
12691SOL     OW39266   3.848   1.035   1.312 -0.0395 -0.0968 -0.5593
12691SOL    HW139267   3.868   0.946   1.284  0.6770  0.0557 -0.5585
12691SOL    HW239268   3.847   1.031   1.408 -0.0406 -0.1125 -0.5600
12692SOL     OW39269   7.217   1.570   4.515  0.1765 -0.6178 -0.4496
12692SOL    HW139270   7.272   1.584   4.592 -0.4398 -1.1216  0.0915
12692SOL    HW239271   7.267   1.608   4.443  1.1932 -0.9855  0.0395
12693SOL     OW39272   5.796   7.988   6.479 -0.1816  0.4276  0.1452
12693SOL    HW139273   5.722   7.929   6.488  0.0599  0.1191  0.1383
12693SOL    HW239274   5.832   7.995   6.568  1.4442 -1.6180 -0.2697
12694SOL     OW39275   5.763   2.495   0.840 -0.0927  0.0381  0.3442
12694SOL    HW139276   5.799   2.418   0.795  0.4818  0.7706 -0.4701
12694SOL    HW239277   5.788   2.482   0.932  0.9906 -0.1916  0.0347
12695SOL     OW39278   3.609   8.560   1.766 -0.3000  0.0555  0.0626
12695SOL    HW139279   3.693   8.538   1.808  0.4357  0.3552 -1.1867
12695SOL    HW239280   3.543   8.537   1.831  0.5616 -2.9825  0.0314
12696SOL     OW39281   6.675   1.723   7.791 -0.1507 -0.0911  0.2844
12696SOL    HW139282   6.683   1.635   7.755  1.1664 -0.3943  1.2756
12696SOL    HW239283   6.764   1.757   7.793 -0.1118 -0.1169  3.2735
12697SOL     OW39284   5.007   1.638   3.816 -1.0569 -0.2419  0.4137
12697SOL    HW139285   5.062   1.666   3.743 -0.3309  0.7199  1.3099
12697SOL    HW239286   4.937   1.587   3.774 -1.2961  1.1960 -1.0687
12698SOL     OW39287   4.085   2.914   5.505  0.2734 -0.3659  0.0010
12698SOL    HW139288   4.012   2.854   5.519  0.2568 -0.5458 -0.7879
12698SOL    HW239289   4.043   2.997   5.482  0.3083 -0.3185  0.1095
12699SOL     OW39290   7.594   6.068   3.409 -0.1595 -0.5228 -0.1509
12699SOL    HW139291   7.644   6.070   3.490  0.7404  1.0499 -0.6991
12699SOL    HW239292   7.503   6.061   3.437  0.0109  1.4895  1.0910
12700SOL     OW39293   3.450   3.722   5.456  0.0477  0.1440 -0.1349
12700SOL    HW139294   3.513   3.778   5.502  1.9717 -1.1403 -1.0412
12700SOL    HW239295   3.371   3.775   5.450  0.6690  1.4536  2.0044
12701SOL     OW39296   8.184   4.465   6.929 -0.6058 -0.0596  0.0116
12701SOL    HW139297   8.160   4.515   6.850 -0.2179 -1.9683 -1.3816
12701SOL    HW239298   8.275   4.440   6.914 -1.2188 -2.4055 -0.0538
12702SOL     OW39299   0.494   6.349   2.389  0.0799 -0.0365 -0.5184
12702SOL    HW139300   0.471   6.331   2.480  0.5846 -0.4065 -0.4591
12702SOL    HW239301   0.440   6.288   2.339  2.2202 -2.3119 -0.2907
12703SOL     OW39302   2.949   4.220   6.375 -0.2846  0.3538  0.2802
12703SOL    HW139303   2.988   4.141   6.414  0.5975  0.5994 -0.0722
12703SOL    HW239304   2.941   4.199   6.282  1.2542  1.1612 -0.0612
12704SOL     OW39305   1.849   1.664   0.043  0.0421 -0.5551 -0.5728
12704SOL    HW139306   1.832   1.734   0.107  1.7612 -1.1939  0.6450
12704SOL    HW239307   1.907   1.704  -0.021 -1.1459 -0.1110 -1.4026
12705SOL     OW39308   6.725   2.372   4.907 -0.1137 -0.4106 -0.4543
12705SOL    HW139309   6.761   2.384   4.819  0.2308 -0.8604 -0.3820
12705SOL    HW239310   6.638   2.410   4.903 -0.3034 -0.8954 -1.1374
12706SOL     OW39311   4.868   3.630   8.175  0.2631  0.5640 -0.0625
12706SOL    HW139312   4.960   3.626   8.148  0.1640 -0.8955 -0.2869
12706SOL    HW239313   4.871   3.660   8.266  1.0823 -0.7214  0.3639
12707SOL     OW39314   6.422   3.841   0.847 -0.3839  0.0920 -0.2760
12707SOL    HW139315   6.398   3.855   0.756 -2.1457 -0.5441  0.0603
12707SOL    HW239316   6.340   3.850   0.896  0.3655 -0.4411  1.1530
12708SOL     OW39317   1.209   6.566   0.917 -0.0393  0.2407 -0.0616
12708SOL    HW139318   1.281   6.626   0.899 -0.1900  1.2904  2.3760
12708SOL    HW239319   1.130   6.617   0.899 -0.1806 -0.0164 -0.1819
12709SOL     OW39320   6.310   7.831   6.192 -0.0787 -0.0040 -0.3205
12709SOL    HW139321   6.362   7.752   6.202  1.8807  0.7730 -3.0727
12709SOL    HW239322   6.375   7.900   6.176 -1.8323  1.3396 -2.2100
12710SOL     OW39323   1.543   4.164   6.751 -0.0922  0.3854 -0.5423
12710SOL    HW139324   1.454   4.199   6.753  0.5624  2.1797 -0.4200
12710SOL    HW239325   1.564   4.159   6.658 -0.8246 -1.5057 -0.6368
12711SOL     OW39326   0.272   6.850   4.857  0.5017 -0.2002 -0.1969
12711SOL    HW139327   0.257   6.929   4.806 -1.0821 -0.3781 -0.0808
12711SOL    HW239328   0.302   6.881   4.942 -0.4037  0.3074 -0.0526
12712SOL     OW39329   4.782   7.429   1.130 -0.6652 -0.1039 -0.2237
12712SOL    HW139330   4.686   7.430   1.130 -0.6659  0.2389  0.0539
12712SOL    HW239331   4.805   7.382   1.210 -0.6158  2.2631  1.2452
12713SOL     OW39332   6.819   0.409   6.100 -0.0303 -0.2338 -0.4986
12713SOL    HW139333   6.914   0.413   6.112  0.2877  0.7374 -2.7935
12713SOL    HW239334   6.785   0.477   6.158  0.7810  0.1374 -0.4449
12714SOL     OW39335   6.207   5.633   4.137 -0.1135 -0.2946  0.1544
12714SOL    HW139336   6.231   5.663   4.224 -2.0661 -1.1259  1.0492
12714SOL    HW239337   6.286   5.593   4.102  0.2881 -1.4548  2.2319
12715SOL     OW39338   5.589   0.598   5.401  0.6579 -0.1977 -0.1862
12715SOL    HW139339   5.556   0.619   5.488  1.2069 -0.0561 -0.0042
12715SOL    HW239340   5.683   0.614   5.407  0.7552 -0.5492 -0.6988
12716SOL     OW39341   2.865   0.133   6.487  0.0479 -0.2541  0.0816
12716SOL    HW139342   2.822   0.049   6.476  0.9157 -0.5256 -1.6418
12716SOL    HW239343   2.941   0.114   6.543  2.6714 -1.6544 -3.5516
12717SOL     OW39344   1.083   7.681   2.618  0.2458 -0.1245 -0.2229
12717SOL    HW139345   1.021   7.738   2.662  0.0313  0.2510 -0.9853
12717SOL    HW239346   1.166   7.697   2.663 -0.1681 -0.5177  0.7008
12718SOL     OW39347   2.494   6.899   4.677  0.9189  0.1642 -0.2020
12718SOL    HW139348   2.446   6.971   4.717 -1.7544 -0.4211 -2.1119
12718SOL    HW239349   2.440   6.822   4.692  1.2888 -0.5720 -2.3210
12719SOL     OW39350   6.314   4.708   7.103 -0.1638 -0.4362 -0.4405
12719SOL    HW139351   6.388   4.654   7.131 -0.4211 -0.8607 -0.5748
12719SOL    HW239352   6.292   4.675   7.015 -0.7325 -0.5493 -0.2598
12720SOL     OW39353   5.342   7.656   5.760 -0.0911  0.1057  0.3910
12720SOL    HW139354   5.266   7.605   5.787 -0.0593 -0.1614 -0.0212
12720SOL    HW239355   5.402   7.592   5.722 -1.1817  0.7478 -2.6861
12721SOL     OW39356   3.544   3.260   6.225 -0.3505  0.1838  0.2959
12721SOL    HW139357   3.544   3.313   6.305  0.8145  0.7914 -0.0728
12721SOL    HW239358   3.499   3.314   6.160  1.3348  1.0452 -0.2354
12722SOL     OW39359   8.312   4.752   6.539  0.0740  0.1083 -0.7159
12722SOL    HW139360   8.310   4.844   6.565  1.3576 -0.4897  1.8217
12722SOL    HW239361   8.366   4.751   6.460 -0.0114  1.5284 -0.8218
12723SOL     OW39362   3.686   6.545   5.334 -0.4004 -0.2626  0.0335
12723SOL    HW139363   3.666   6.592   5.253 -0.5428 -1.1225 -0.4323
12723SOL    HW239364   3.657   6.455   5.318  1.9615 -1.0847  0.0712
12724SOL     OW39365   4.750   2.843   1.438  0.2069 -0.0922  0.2698
12724SOL    HW139366   4.775   2.861   1.529  0.4294 -1.4457  0.5110
12724SOL    HW239367   4.826   2.800   1.400  0.6346  1.6765 -1.0029
12725SOL     OW39368   7.415   6.902   7.145 -0.6691  0.0894  0.2490
12725SOL    HW139369   7.443   6.817   7.178 -1.2246  0.3752  1.5170
12725SOL    HW239370   7.488   6.961   7.165 -1.6605  0.6245  2.6465
12726SOL     OW39371   2.699   7.928   3.861 -0.5618  0.1891  0.2236
12726SOL    HW139372   2.732   7.886   3.940  0.2249 -1.3002 -0.8273
12726SOL    HW239373   2.610   7.955   3.883 -0.9039 -1.5517  1.1701
12727SOL     OW39374   3.377   5.257   8.063  0.3404  0.0814  0.8435
12727SOL    HW139375   3.395   5.329   8.122 -1.9610  2.1860 -0.8098
12727SOL    HW239376   3.293   5.222   8.093  0.0497 -0.0223 -0.0553
12728SOL     OW39377   1.393   4.979   2.969 -0.6891  0.0365 -0.3582
12728SOL    HW139378   1.381   4.946   3.058  2.3450  1.2978  0.6664
12728SOL    HW239379   1.375   5.073   2.976  1.4939  0.5139 -0.5214
12729SOL     OW39380   5.638   8.071   2.288  0.5401 -0.4200  0.0712
12729SOL    HW139381   5.617   7.978   2.284 -0.9416 -0.0789 -0.8229
12729SOL    HW239382   5.712   8.076   2.349  0.9178 -2.2095 -0.1814
12730SOL     OW39383   6.293   6.095   1.105 -0.1286 -0.4771 -0.1372
12730SOL    HW139384   6.224   6.126   1.046 -0.0975 -0.8214 -0.3588
12730SOL    HW239385   6.285   6.150   1.182 -1.2595 -1.0942  0.2133
12731SOL     OW39386   4.223   7.982   7.493  0.3574  0.2470  0.3894
12731SOL    HW139387   4.317   7.967   7.507  0.1172 -0.5730  1.2545
12731SOL    HW239388   4.185   7.973   7.581 -0.6949 -0.7777 -0.1522
12732SOL     OW39389   7.692   0.242   3.928 -0.5247 -0.1839 -0.0386
12732SOL    HW139390   7.664   0.261   4.017  0.6590  0.5592  0.1906
12732SOL    HW239391   7.772   0.190   3.938  0.7711  1.5840 -0.6019
12733SOL     OW39392   8.291   1.186   7.729 -0.5012  0.3489 -0.5545
12733SOL    HW139393   8.305   1.142   7.813 -0.7580  0.4786 -0.4423
12733SOL    HW239394   8.204   1.157   7.701 -0.7692  0.9709 -0.3661
12734SOL     OW39395   6.023   7.401   7.158 -0.1478  0.2107  0.1464
12734SOL    HW139396   5.929   7.419   7.150 -0.0316  1.0302  0.5610
12734SOL    HW239397   6.062   7.445   7.083 -0.1015 -0.2658 -0.1159
12735SOL     OW39398   8.141   7.565   7.286  0.5432 -0.2586 -0.9563
12735SOL    HW139399   8.179   7.613   7.359  1.4097  0.5551 -1.9030
12735SOL    HW239400   8.049   7.553   7.310  0.3774  1.5849 -0.5359
12736SOL     OW39401   3.589   3.714   0.978 -0.2002 -0.0873 -0.3114
12736SOL    HW139402   3.510   3.733   1.027  0.3311  1.0934  0.1319
12736SOL    HW239403   3.563   3.722   0.886 -0.7539 -0.4199 -0.1866
12737SOL     OW39404   3.127   1.583   0.382  0.4611 -0.4194 -0.0578
12737SOL    HW139405   3.109   1.536   0.301 -2.6598 -1.9692  1.3795
12737SOL    HW239406   3.128   1.515   0.450 -0.1326  1.1424  1.6004
12738SOL     OW39407   3.281   7.681   7.241  0.2323 -0.2341  0.1445
12738SOL    HW139408   3.185   7.681   7.247  0.1312  0.5223 -1.0511
12738SOL    HW239409   3.303   7.592   7.215 -0.3158  0.0213 -1.3263
12739SOL     OW39410   6.578   7.315   7.646 -0.3099 -0.3200  0.2182
12739SOL    HW139411   6.500   7.261   7.636 -0.3591 -0.3088  0.5151
12739SOL    HW239412   6.545   7.403   7.666 -0.2225 -0.3424  0.4717
12740SOL     OW39413   0.591   2.419   2.734 -0.1214  0.0911 -0.4495
12740SOL    HW139414   0.517   2.359   2.726  0.2840 -0.3319 -1.1553
12740SOL    HW239415   0.567   2.493   2.679 -0.2432  0.1828 -0.2727
12741SOL     OW39416   8.009   7.335   0.443 -0.4452  0.4114 -0.0974
12741SOL    HW139417   7.916   7.326   0.420 -0.1152 -0.0646 -1.3433
12741SOL    HW239418   8.009   7.387   0.523 -1.7582  1.0989 -0.5073
12742SOL     OW39419   6.591   5.844   6.154  0.1018 -0.2729  0.2486
12742SOL    HW139420   6.569   5.872   6.243  0.8313 -3.0170  1.3984
12742SOL    HW239421   6.681   5.873   6.141 -0.2999  0.9216  0.0141
12743SOL     OW39422   3.562   3.804   8.323 -0.3049 -0.4261 -0.3057
12743SOL    HW139423   3.606   3.834   8.402  0.3290  0.1238 -0.8602
12743SOL    HW239424   3.613   3.841   8.251 -0.1747 -1.8686 -0.9971
12744SOL     OW39425   4.457   2.228   0.387  0.2430 -0.4970  0.0211
12744SOL    HW139426   4.395   2.281   0.437 -0.3720 -1.4650  0.3006
12744SOL    HW239427   4.531   2.215   0.445  1.4173  1.8770 -0.8046
12745SOL     OW39428   4.013   7.587   0.954 -0.1261  0.1343  0.3615
12745SOL    HW139429   4.066   7.508   0.943 -1.3046 -0.5674 -0.6334
12745SOL    HW239430   4.030   7.638   0.875 -0.8657 -0.0733  0.0573
12746SOL     OW39431   4.071   1.398   0.039  0.3540 -0.8827 -0.6109
12746SOL    HW139432   4.113   1.460  -0.021 -1.1629 -0.2783 -1.1066
12746SOL    HW239433   4.002   1.357  -0.013 -1.3454  0.0297  0.8137
12747SOL     OW39434   2.893   7.973   7.314 -0.0566  0.1572 -0.2211
12747SOL    HW139435   2.921   7.987   7.223  0.5123 -0.6393 -0.1731
12747SOL    HW239436   2.880   8.062   7.348 -1.2767  0.4423 -1.3760
12748SOL     OW39437   4.934   0.661   5.553 -0.3143 -0.0922 -0.0759
12748SOL    HW139438   4.937   0.755   5.566  0.4058 -0.0038 -0.7653
12748SOL    HW239439   5.023   0.631   5.575 -0.0648 -0.3774 -1.3962
12749SOL     OW39440   1.473   2.873   1.720  0.4176 -0.8452 -0.5611
12749SOL    HW139441   1.387   2.841   1.693  0.0207 -0.7582  0.5827
12749SOL    HW239442   1.515   2.900   1.638 -1.8233  2.1291 -0.8850
12750SOL     OW39443   3.109   1.212   8.556  0.0541 -0.0033  0.2805
12750SOL    HW139444   3.021   1.213   8.594 -0.6971  0.7727 -1.4173
12750SOL    HW239445   3.133   1.304   8.549 -0.2831 -0.0478 -2.0756
12751SOL     OW39446   6.964   4.391   6.219 -0.0689 -0.0399 -0.9631
12751SOL    HW139447   7.010   4.463   6.175  0.7998 -1.4208 -2.4567
12751SOL    HW239448   6.983   4.314   6.165 -0.6361 -1.4824  0.7772
12752SOL     OW39449   7.532   1.732   1.001 -0.0064 -0.1082  0.5664
12752SOL    HW139450   7.445   1.693   0.994 -0.6480  1.3374 -0.0421
12752SOL    HW239451   7.578   1.704   0.922 -0.6054  0.6552 -0.0763
12753SOL     OW39452   2.929   2.730   3.758 -0.4220  0.2862  0.5612
12753SOL    HW139453   2.890   2.814   3.783 -0.4840  0.0369  1.3145
12753SOL    HW239454   2.883   2.665   3.811 -0.8941 -0.3197 -0.5491
12754SOL     OW39455   1.825   6.710   1.243  0.2040  0.2637 -0.3382
12754SOL    HW139456   1.914   6.696   1.212 -0.3489 -0.3773 -1.7080
12754SOL    HW239457   1.804   6.800   1.217 -0.4725 -0.4653 -2.4872
12755SOL     OW39458   8.363   2.456   6.635  0.0322  0.4402  0.6707
12755SOL    HW139459   8.280   2.460   6.587  0.1802 -0.6304  0.2911
12755SOL    HW239460   8.349   2.511   6.711 -0.7904  0.8303  0.2535
12756SOL     OW39461   3.381   0.666   6.310 -0.2370  0.8321  0.1468
12756SOL    HW139462   3.442   0.601   6.344 -0.2535  0.1772 -1.0234
12756SOL    HW239463   3.300   0.651   6.358 -0.0121  0.4839  0.4170
12757SOL     OW39464   3.005   6.720   3.556  0.2494  0.4122 -0.1163
12757SOL    HW139465   3.084   6.683   3.594  1.5641  1.6725 -1.4790
12757SOL    HW239466   2.984   6.796   3.611 -1.2343 -1.0336  1.4294
12758SOL     OW39467   1.953   7.222   1.948 -0.6193  0.1360 -0.2899
12758SOL    HW139468   1.884   7.163   1.977  0.6684 -0.6851  1.2148
12758SOL    HW239469   1.992   7.256   2.028  1.4379 -0.2726 -1.0504
12759SOL     OW39470   7.299   3.489   5.094  0.0516  0.0936  0.3879
12759SOL    HW139471   7.285   3.396   5.111  1.1683  0.1557  1.8084
12759SOL    HW239472   7.228   3.534   5.141  1.5079  0.1094  2.6875
12760SOL     OW39473   1.679   3.714   6.285  0.0253  0.1418 -0.1154
12760SOL    HW139474   1.737   3.724   6.208  0.0433 -0.9126 -0.2443
12760SOL    HW239475   1.594   3.691   6.248 -0.3140  0.9851  0.1176
12761SOL     OW39476   4.785   6.049   2.539  0.5574  0.0728 -0.1704
12761SOL    HW139477   4.779   6.060   2.633 -0.5831 -2.1278  0.0810
12761SOL    HW239478   4.874   6.016   2.524  0.4752 -0.3348  0.2300
12762SOL     OW39479   1.214   1.403   4.348 -0.2562  0.2570 -0.3633
12762SOL    HW139480   1.144   1.403   4.282 -0.3255 -0.7492 -0.3183
12762SOL    HW239481   1.278   1.340   4.314 -0.2753 -0.2447  0.5061
12763SOL     OW39482   0.998   1.437   4.186 -0.1741 -0.0432  0.2147
12763SOL    HW139483   0.906   1.427   4.162 -0.4934 -0.6079  1.5767
12763SOL    HW239484   1.045   1.383   4.123 -0.7885  0.0844 -0.3661
12764SOL     OW39485   5.181   3.310   4.799 -0.2001  0.3872  0.2472
12764SOL    HW139486   5.270   3.293   4.829 -0.0377  1.9191  0.7577
12764SOL    HW239487   5.125   3.264   4.861  0.2279 -0.2582  0.1589
12765SOL     OW39488   5.506   5.351   4.174 -0.1502 -0.5973  0.7942
12765SOL    HW139489   5.564   5.361   4.249  1.8126  0.3556 -0.7533
12765SOL    HW239490   5.540   5.276   4.126 -0.4656 -0.2882  0.0717
12766SOL     OW39491   2.072   6.037   8.031  0.0819  0.3556  0.4677
12766SOL    HW139492   1.999   6.081   7.987 -0.1855  0.2912  0.8385
12766SOL    HW239493   2.134   6.108   8.050 -0.6403  0.7041  1.6462
12767SOL     OW39494   1.733   6.903   8.008  0.4356 -0.1898  0.2314
12767SOL    HW139495   1.809   6.954   7.980 -0.1547  0.8857  0.4942
12767SOL    HW239496   1.658   6.949   7.970 -0.1042 -1.1160  0.1373
12768SOL     OW39497   1.298   3.875   1.480  0.6689  0.1467 -0.1419
12768SOL    HW139498   1.311   3.892   1.573  0.1658 -0.3041  0.0219
12768SOL    HW239499   1.207   3.845   1.474  0.2015  1.6219 -0.9880
12769SOL     OW39500   1.858   3.430   6.142  0.9189 -0.0228  0.1439
12769SOL    HW139501   1.939   3.381   6.157  0.6819 -0.5883 -0.4036
12769SOL    HW239502   1.807   3.417   6.222  0.5188 -1.3433 -0.3061
12770SOL     OW39503   3.461   6.910   3.692 -0.2405 -0.2390  0.3461
12770SOL    HW139504   3.501   6.831   3.653  2.1725  0.5974  0.9742
12770SOL    HW239505   3.497   6.914   3.780 -1.2852  0.9520  0.7451
12771SOL     OW39506   1.349   7.218   3.311  0.0932  0.1194  0.4740
12771SOL    HW139507   1.437   7.235   3.276  0.5001 -0.2470  1.2958
12771SOL    HW239508   1.355   7.243   3.403 -0.3230 -1.0121  0.8215
12772SOL     OW39509   3.917   2.932   2.552  0.1277 -0.4101 -0.2087
12772SOL    HW139510   3.850   3.000   2.563  0.9795  0.8381 -2.1357
12772SOL    HW239511   3.890   2.861   2.610 -2.1458  0.5706  0.0124
12773SOL     OW39512   0.684   0.374   3.042  0.4609  0.4211  0.3354
12773SOL    HW139513   0.763   0.402   3.089  0.5149 -0.5513  0.8613
12773SOL    HW239514   0.665   0.287   3.078 -0.0135  0.0259 -0.8230
12774SOL     OW39515   5.893   3.284   6.150 -0.3572 -0.0183 -0.1671
12774SOL    HW139516   5.955   3.332   6.204 -0.9675 -0.6710  1.1604
12774SOL    HW239517   5.895   3.195   6.184 -2.3681  0.0476  0.2434
12775SOL     OW39518   3.612   7.285   6.502  0.0522  0.2227 -0.0403
12775SOL    HW139519   3.702   7.318   6.502  0.5681 -1.0928  0.0218
12775SOL    HW239520   3.557   7.363   6.509  1.0700  1.3243 -2.9377
12776SOL     OW39521   1.248   1.228   0.500  0.0300  0.6017  0.1542
12776SOL    HW139522   1.302   1.209   0.423 -0.9713  0.6681 -0.5825
12776SOL    HW239523   1.222   1.320   0.489 -0.7489  0.3911  0.1613
12777SOL     OW39524   5.591   5.649   4.735  0.2827  0.2573 -0.5835
12777SOL    HW139525   5.566   5.647   4.828 -0.2154  0.9232 -0.6907
12777SOL    HW239526   5.687   5.651   4.736  0.2918  2.5580  0.0217
12778SOL     OW39527   5.798   7.262   4.844  0.1605 -0.2250  0.0096
12778SOL    HW139528   5.855   7.310   4.905  1.3057 -1.3786 -0.1185
12778SOL    HW239529   5.847   7.259   4.763 -0.8171  0.1874 -0.6176
12779SOL     OW39530   6.709   6.450   7.538  0.8710 -0.0411 -0.4743
12779SOL    HW139531   6.701   6.428   7.446 -0.5221  3.2438 -1.2609
12779SOL    HW239532   6.775   6.519   7.541 -0.1853  0.9839  0.7031
12780SOL     OW39533   5.166   4.455   8.002 -0.1942 -0.1371 -0.0805
12780SOL    HW139534   5.080   4.467   7.962 -0.5301  1.0996  0.9691
12780SOL    HW239535   5.187   4.363   7.985 -0.9563 -0.0225 -1.8117
12781SOL     OW39536   5.470   3.707   7.403 -0.0867  0.2801 -0.7727
12781SOL    HW139537   5.442   3.706   7.312  1.2646  1.8996 -1.2705
12781SOL    HW239538   5.469   3.800   7.428  2.3315  0.2166 -0.1122
12782SOL     OW39539   7.452   3.989   5.988  0.1896 -0.2740 -0.5042
12782SOL    HW139540   7.501   4.050   5.933  1.9561 -1.1485  0.0242
12782SOL    HW239541   7.361   4.005   5.966  0.6860  1.4456 -1.5214
12783SOL     OW39542   5.867   6.929   6.206 -0.1477  0.2639  0.1842
12783SOL    HW139543   5.890   6.983   6.130  1.2742 -0.1856  0.2641
12783SOL    HW239544   5.830   6.850   6.168 -0.6974  0.5975  0.0124
12784SOL     OW39545   7.729   3.585   1.600 -0.0585 -0.0604 -0.4942
12784SOL    HW139546   7.638   3.569   1.576  0.0178  0.6327 -1.2787
12784SOL    HW239547   7.726   3.607   1.693 -0.6870 -0.0545 -0.5116
12785SOL     OW39548   1.298   3.625   4.163 -0.3419  0.0979 -0.5239
12785SOL    HW139549   1.204   3.642   4.153 -0.2317  0.6096 -0.7395
12785SOL    HW239550   1.312   3.543   4.115 -0.4099  0.8325 -1.8747
12786SOL     OW39551   0.112   3.364   2.749  1.1378 -0.3607  0.4391
12786SOL    HW139552   0.087   3.395   2.662  1.0750  0.5070  0.7552
12786SOL    HW239553   0.050   3.294   2.768 -0.6944  1.2777  0.9109
12787SOL     OW39554   5.800   5.837   5.094  0.2972  0.1949  0.6205
12787SOL    HW139555   5.823   5.913   5.041 -1.5149 -0.5594 -1.4446
12787SOL    HW239556   5.714   5.858   5.130  0.1028 -0.5809  0.6270
12788SOL     OW39557   5.350   5.198   6.527  0.0735 -0.7326 -0.1203
12788SOL    HW139558   5.333   5.283   6.485  0.0722 -0.8287 -0.3180
12788SOL    HW239559   5.322   5.134   6.462  0.6943 -0.8914 -0.2359
12789SOL     OW39560   7.210   3.560   1.083 -0.9941  0.5185  0.0733
12789SOL    HW139561   7.161   3.614   1.021 -2.0334 -1.1763 -0.6664
12789SOL    HW239562   7.215   3.613   1.162 -2.2043  1.5906 -0.5201
12790SOL     OW39563   1.092   5.452   6.910 -0.3033 -0.5848  0.7067
12790SOL    HW139564   1.092   5.477   7.002 -0.0926 -1.7840  1.0497
12790SOL    HW239565   1.010   5.405   6.897 -0.9533  0.6855 -0.0668
12791SOL     OW39566   8.359   3.028   3.409  0.1152 -0.5010 -0.3980
12791SOL    HW139567   8.316   3.033   3.495 -4.4360 -1.5380 -2.3140
12791SOL    HW239568   8.348   2.936   3.382  1.2344 -0.1544 -2.1820
12792SOL     OW39569   6.102   4.310   3.770  0.2270 -0.6857  0.3874
12792SOL    HW139570   6.080   4.367   3.695  1.3856  2.1002  2.0023
12792SOL    HW239571   6.159   4.243   3.732  1.8123  1.3552 -1.1279
12793SOL     OW39572   4.651   7.774   1.942 -0.1639  0.2171  0.0594
12793SOL    HW139573   4.561   7.745   1.959  0.5249 -1.3064  1.3902
12793SOL    HW239574   4.678   7.815   2.024  0.6698 -0.2328  0.0194
12794SOL     OW39575   3.726   6.889   7.208  0.3567  0.0223 -0.7148
12794SOL    HW139576   3.801   6.842   7.244 -0.3355  0.3677  1.3186
12794SOL    HW239577   3.754   6.981   7.206 -0.4333  0.3668  1.4368
12795SOL     OW39578   6.584   0.418   0.896  0.0981 -0.4835 -0.7269
12795SOL    HW139579   6.626   0.482   0.954  0.7020 -0.4948 -1.1392
12795SOL    HW239580   6.642   0.342   0.899 -0.4323 -0.8816 -0.5176
12796SOL     OW39581   0.477   4.251   4.377 -0.5435 -0.1809  0.1659
12796SOL    HW139582   0.387   4.273   4.353 -1.1258 -2.1683  0.3525
12796SOL    HW239583   0.491   4.297   4.460 -0.6578  1.7500 -0.8331
12797SOL     OW39584   8.281   2.272   8.279 -0.1176 -0.0272 -0.4351
12797SOL    HW139585   8.244   2.202   8.225 -1.4464 -0.7086  1.2642
12797SOL    HW239586   8.333   2.324   8.218 -0.7022 -1.3398 -2.1453
12798SOL     OW39587   2.431   3.684   6.237 -0.3725  0.1719  0.2965
12798SOL    HW139588   2.510   3.719   6.277  1.6715  0.9980 -3.8320
12798SOL    HW239589   2.441   3.589   6.243 -0.2607  0.2662  1.8094
12799SOL     OW39590   0.691   3.234   0.035 -0.0547 -0.4944 -0.7332
12799SOL    HW139591   0.780   3.257   0.007 -0.4611  0.4049 -1.3247
12799SOL    HW239592   0.657   3.314   0.076 -0.2692 -1.1191  0.3384
12800SOL     OW39593   6.003   1.028   4.537 -0.6745  0.2089  0.0669
12800SOL    HW139594   5.979   0.935   4.538 -2.8979  0.7096  0.9212
12800SOL    HW239595   6.097   1.029   4.521 -0.4466 -2.2179  0.8592
12801SOL     OW39596   5.540   7.207   2.734  0.2108 -0.4088  0.2574
12801SOL    HW139597   5.556   7.296   2.766  1.0083 -0.6824  0.6601
12801SOL    HW239598   5.604   7.153   2.781  0.9845 -0.9330 -1.3207
12802SOL     OW39599   1.909   7.410   8.238 -0.4687 -0.4187  0.0610
12802SOL    HW139600   1.938   7.336   8.184  2.4296  0.2524  0.5418
12802SOL    HW239601   1.938   7.488   8.190 -2.4604  0.4261  0.1258
12803SOL     OW39602   1.071   7.398   1.895 -0.7921  0.8056  0.1640
12803SOL    HW139603   1.154   7.364   1.929 -1.2516 -0.8720 -0.3236
12803SOL    HW239604   1.086   7.493   1.888  1.0150  0.5730  0.2685
12804SOL     OW39605   7.907   4.001   6.769 -0.3641 -0.0886  0.1608
12804SOL    HW139606   7.905   3.914   6.730  0.7265  0.7797 -1.9865
12804SOL    HW239607   7.945   3.988   6.856  3.5022 -1.3514 -1.5095
12805SOL     OW39608   6.690   4.001   7.297 -0.2924 -0.0612  0.2000
12805SOL    HW139609   6.721   3.991   7.387 -1.4154 -1.8027  0.4518
12805SOL    HW239610   6.605   4.044   7.306  0.9125  2.5742 -0.3067
12806SOL     OW39611   1.781   2.464   0.525  0.3697 -0.3463 -0.4536
12806SOL    HW139612   1.863   2.471   0.475  1.4467 -0.3195  1.2430
12806SOL    HW239613   1.805   2.416   0.604 -1.6856 -1.9502 -0.7417
12807SOL     OW39614   4.963   5.408   8.163 -0.0161  0.2258 -0.2489
12807SOL    HW139615   4.938   5.368   8.080 -0.3069  0.5714 -0.3271
12807SOL    HW239616   5.045   5.364   8.187  0.0658  0.1247 -0.7139
12808SOL     OW39617   0.028   1.920   2.541 -0.4174 -0.0507 -0.6213
12808SOL    HW139618  -0.058   1.881   2.552  0.0215 -1.0141 -0.5387
12808SOL    HW239619   0.023   1.965   2.456 -0.9720 -0.1769 -0.6569
12809SOL     OW39620   3.010   0.909   6.022 -0.8499 -0.3911  0.5497
12809SOL    HW139621   3.052   0.994   6.008 -1.2061 -0.0070  1.7169
12809SOL    HW239622   3.042   0.880   6.107 -1.2618 -1.1045  0.4689
12810SOL     OW39623   6.830   5.818   4.783  0.5263 -0.0120  0.3088
12810SOL    HW139624   6.785   5.767   4.851 -2.6147 -0.0186 -1.5683
12810SOL    HW239625   6.800   5.908   4.798  3.1979  0.7820  1.4071
12811SOL     OW39626   7.132   3.491   8.353  0.1421 -0.3511 -0.0764
12811SOL    HW139627   7.068   3.466   8.419  0.9799  1.3134  1.4461
12811SOL    HW239628   7.200   3.424   8.359 -0.6352 -1.2182 -0.5762
12812SOL     OW39629   5.571   0.509   5.094 -0.5844 -0.0842 -0.2777
12812SOL    HW139630   5.548   0.542   5.181  0.2632 -0.2065  0.0052
12812SOL    HW239631   5.616   0.583   5.052  0.8401 -0.6573  0.1599
12813SOL     OW39632   0.839   7.043   5.167 -0.7446 -0.3769  0.0469
12813SOL    HW139633   0.902   7.102   5.209 -0.3673  0.9325 -2.1634
12813SOL    HW239634   0.889   6.962   5.153  0.1111  0.2414 -0.6122
12814SOL     OW39635   6.468   4.067   1.517  0.0325 -0.0928  0.0409
12814SOL    HW139636   6.549   4.112   1.543  1.1929 -1.0693 -1.6743
12814SOL    HW239637   6.440   4.021   1.596  0.4840  1.1863  0.9881
12815SOL     OW39638   5.027   5.866   0.710  0.1593  0.3500  0.1307
12815SOL    HW139639   5.061   5.800   0.771 -0.0580  0.2247  0.1171
12815SOL    HW239640   5.098   5.879   0.648  0.8173  1.3044  1.0552
12816SOL     OW39641   3.083   0.351   1.105 -0.3571 -0.0886  0.1678
12816SOL    HW139642   3.073   0.321   1.195  0.5254 -0.2850  0.2072
12816SOL    HW239643   3.096   0.272   1.053  0.3044  0.1016  0.0358
12817SOL     OW39644   3.754   5.872   2.304  0.0276  0.2526  0.0677
12817SOL    HW139645   3.670   5.908   2.334  0.0789  0.0956  0.4005
12817SOL    HW239646   3.802   5.949   2.273 -1.2355  0.0837 -2.6484
12818SOL     OW39647   3.995   1.122   7.555 -0.0749  0.2056 -0.0935
12818SOL    HW139648   3.949   1.204   7.541 -0.7277  0.0335  0.9019
12818SOL    HW239649   3.945   1.057   7.506 -0.9888  0.0013  1.0684
12819SOL     OW39650   1.521   8.454   5.935  0.3077  0.1627 -0.2466
12819SOL    HW139651   1.461   8.383   5.957  0.0883  0.4563  0.1133
12819SOL    HW239652   1.570   8.422   5.859  0.3203 -0.4352  0.0101
12820SOL     OW39653   3.091   7.365   7.327 -0.2267 -0.0328  0.1513
12820SOL    HW139654   3.088   7.342   7.235 -1.1601 -0.0913  0.1864
12820SOL    HW239655   3.057   7.455   7.331  1.1676  0.5130  0.2844
12821SOL     OW39656   2.407   8.390   6.746  0.1611 -0.0670  0.2616
12821SOL    HW139657   2.338   8.453   6.764  0.3923  0.1873  0.2718
12821SOL    HW239658   2.365   8.320   6.696 -0.1089  0.0685  0.3014
12822SOL     OW39659   8.463   5.386   6.989  0.4904  0.1731 -0.3849
12822SOL    HW139660   8.475   5.292   6.978 -0.0987  0.0594 -0.0789
12822SOL    HW239661   8.536   5.413   7.044  1.6243  0.1953 -1.8440
12823SOL     OW39662   3.624   5.346   7.569  0.0120  0.0834 -0.5510
12823SOL    HW139663   3.555   5.366   7.631 -2.0399  1.4198 -3.0493
12823SOL    HW239664   3.617   5.251   7.555  1.0391 -0.3864  1.7000
12824SOL     OW39665   5.507   1.464   7.040  0.1755  0.3045 -0.5139
12824SOL    HW139666   5.562   1.458   7.119 -1.0412  0.4000  0.3628
12824SOL    HW239667   5.459   1.382   7.038 -0.9002  0.9127 -0.3104
12825SOL     OW39668   1.484   3.490   0.134 -0.3067 -0.1100 -0.6225
12825SOL    HW139669   1.481   3.522   0.225 -0.2943  2.0260 -1.3285
12825SOL    HW239670   1.412   3.535   0.090  0.7090  0.1777 -2.0582
12826SOL     OW39671   1.515   6.554   1.101 -0.4089  0.2760 -0.6473
12826SOL    HW139672   1.526   6.647   1.082  0.0124  0.4597  0.4521
12826SOL    HW239673   1.430   6.548   1.144  0.2359  0.3876  0.6855
12827SOL     OW39674   3.170   8.313   1.650  0.4682  0.4800  0.1186
12827SOL    HW139675   3.118   8.273   1.580  0.2178 -0.8292  1.0188
12827SOL    HW239676   3.261   8.297   1.624  0.4281 -2.7814  1.5045
12828SOL     OW39677   8.515   1.618   6.396  0.4044  0.0237  0.5903
12828SOL    HW139678   8.423   1.613   6.369  0.0375 -0.3483  1.8144
12828SOL    HW239679   8.553   1.686   6.341 -0.9152  1.0664  0.9155
12829SOL     OW39680   0.214   4.824   6.709  0.3578 -0.3809 -0.4766
12829SOL    HW139681   0.284   4.765   6.734 -0.7300 -2.2033 -1.4857
12829SOL    HW239682   0.181   4.860   6.792  2.3395  0.4115  0.0061
12830SOL     OW39683   7.682   4.303   1.556  0.3223 -0.6509  0.1688
12830SOL    HW139684   7.734   4.225   1.539  0.0439 -0.8996  0.4337
12830SOL    HW239685   7.688   4.316   1.651  0.3917 -0.3302  0.1237
12831SOL     OW39686   0.988   0.650   4.583 -0.2966  0.3702  0.1203
12831SOL    HW139687   1.034   0.569   4.563  1.3133  1.5632 -1.2077
12831SOL    HW239688   0.900   0.621   4.610  0.0030 -1.7580 -0.9855
12832SOL     OW39689   7.319   1.737   5.556  0.8504 -0.0552 -0.0182
12832SOL    HW139690   7.370   1.814   5.531  1.3115 -0.9442 -2.0152
12832SOL    HW239691   7.369   1.663   5.521  0.0631 -1.2311  1.2379
12833SOL     OW39692   2.669   5.808   7.330  0.1060  0.3741  0.3005
12833SOL    HW139693   2.624   5.781   7.410  0.5252  1.8621  1.0675
12833SOL    HW239694   2.722   5.732   7.305 -1.8864 -1.0049  0.0165
12834SOL     OW39695   2.048   1.062   6.781  0.0652 -0.3403 -0.1259
12834SOL    HW139696   1.983   1.058   6.851  1.0089  1.2416  0.8985
12834SOL    HW239697   2.001   1.031   6.703 -0.9513 -2.3815  1.1911
12835SOL     OW39698   6.967   4.228   0.680  0.5613 -0.2060 -0.1305
12835SOL    HW139699   6.981   4.145   0.727 -0.8267 -0.3942 -0.0001
12835SOL    HW239700   6.964   4.203   0.588  0.4434 -0.2559 -0.1131
12836SOL     OW39701   1.496   1.845   7.548 -0.0138 -0.4931 -0.2399
12836SOL    HW139702   1.421   1.879   7.596  0.3782  1.3994 -0.8898
12836SOL    HW239703   1.475   1.753   7.533 -2.0035 -0.1159 -0.0421
12837SOL     OW39704   1.938   0.721   3.799 -0.4235  0.2167 -0.3179
12837SOL    HW139705   1.913   0.657   3.732  1.6352 -0.2870 -0.7062
12837SOL    HW239706   1.924   0.676   3.882 -2.0754  0.4864 -0.4256
12838SOL     OW39707   1.918   4.630   8.328  0.5774  0.1300 -0.0240
12838SOL    HW139708   2.002   4.590   8.347  0.6137 -0.3236 -1.0597
12838SOL    HW239709   1.894   4.597   8.241 -0.0433  1.2819 -0.3256
12839SOL     OW39710   6.566   2.139   7.494 -0.2900 -0.7470  0.3438
12839SOL    HW139711   6.608   2.068   7.447 -1.8371 -0.8437 -0.9524
12839SOL    HW239712   6.517   2.096   7.564 -1.1002 -0.9694 -0.3448
12840SOL     OW39713   5.958   3.090   3.280 -0.3442 -0.3243  0.4604
12840SOL    HW139714   5.887   3.053   3.228 -0.2209 -1.3510  1.0004
12840SOL    HW239715   5.940   3.184   3.281  0.2373 -0.0979 -2.3218
12841SOL     OW39716   3.625   5.813   7.336  0.3928  0.0125  0.1285
12841SOL    HW139717   3.582   5.836   7.418  2.3916 -0.5711  1.4271
12841SOL    HW239718   3.654   5.722   7.348  0.5812 -0.1438 -1.2912
12842SOL     OW39719   0.589   4.584   4.404 -0.0508  0.4819  0.1108
12842SOL    HW139720   0.539   4.548   4.330  0.0801 -0.2206  0.3496
12842SOL    HW239721   0.613   4.507   4.455  2.4333  0.6662 -0.6825
12843SOL     OW39722   7.094   5.405   6.797 -0.4161 -0.3541 -0.5519
12843SOL    HW139723   7.086   5.310   6.802  0.8728 -0.4388  1.7434
12843SOL    HW239724   7.189   5.421   6.803 -0.5751  1.0710 -1.4298
12844SOL     OW39725   6.531   1.611   4.617  0.5100  0.0255 -0.3718
12844SOL    HW139726   6.600   1.625   4.683 -0.7558 -0.0365  1.0293
12844SOL    HW239727   6.456   1.659   4.652 -0.6503 -1.2675 -1.0153
12845SOL     OW39728   5.674   4.520   3.191 -0.0791  0.2660  0.7785
12845SOL    HW139729   5.597   4.470   3.218 -0.7068  0.3674 -0.7171
12845SOL    HW239730   5.731   4.456   3.148  0.8788  0.1149  2.2039
12846SOL     OW39731   4.430   8.055   1.043  0.6553  0.1425 -0.2671
12846SOL    HW139732   4.415   8.148   1.055  1.5058  0.1774  0.7259
12846SOL    HW239733   4.505   8.035   1.099  1.3091 -0.8897 -1.4370
12847SOL     OW39734   4.662   6.625   0.992  0.0642  0.0403 -0.2657
12847SOL    HW139735   4.732   6.675   0.950 -0.8728  1.3622 -0.3015
12847SOL    HW239736   4.582   6.676   0.976 -0.6176 -0.4134  1.4366
12848SOL     OW39737   1.416   4.285   5.726 -0.7053  0.4575 -0.5933
12848SOL    HW139738   1.477   4.324   5.789 -1.5364  0.4771  0.2145
12848SOL    HW239739   1.340   4.343   5.728 -1.3954 -0.4353 -0.4066
12849SOL     OW39740   4.109   7.030   7.284  0.1438 -0.0598 -0.4992
12849SOL    HW139741   4.073   7.059   7.200  0.1367  0.1829 -0.4111
12849SOL    HW239742   4.187   7.084   7.297  0.2518 -0.2291 -0.4407
12850SOL     OW39743   8.526   4.078   3.860  0.5480  0.1967 -0.0712
12850SOL    HW139744   8.597   4.026   3.823  0.1761  0.3590 -1.0637
12850SOL    HW239745   8.532   4.064   3.954  1.9902  0.3440 -0.1194
12851SOL     OW39746   1.748   1.700   1.153  0.3924  0.6089 -0.5752
12851SOL    HW139747   1.686   1.642   1.110 -0.5085  0.6745  0.5818
12851SOL    HW239748   1.815   1.718   1.086 -0.3129 -0.2323 -1.5364
12852SOL     OW39749   2.884   3.846   3.962 -0.8086 -0.1515 -0.0848
12852SOL    HW139750   2.937   3.924   3.943  0.7596 -0.8207  1.3081
12852SOL    HW239751   2.801   3.882   3.995 -0.9977  0.9150 -1.6236
12853SOL     OW39752   4.137   1.833   4.854 -0.3678 -0.3632 -0.0181
12853SOL    HW139753   4.179   1.883   4.924 -1.0655  0.9387 -0.4829
12853SOL    HW239754   4.044   1.850   4.866 -0.6135 -1.4641 -0.2903
12854SOL     OW39755   2.303   2.684   5.520 -0.0775  0.3195 -0.4777
12854SOL    HW139756   2.252   2.762   5.497 -0.4521 -0.4454 -2.4427
12854SOL    HW239757   2.271   2.616   5.461  0.6955 -1.1732  0.7575
12855SOL     OW39758   3.196   6.046   1.865 -0.1634  0.6068 -0.1974
12855SOL    HW139759   3.123   6.101   1.837 -0.1515  0.2765 -0.8896
12855SOL    HW239760   3.160   5.959   1.873  0.2090  0.3806 -0.8439
12856SOL     OW39761   8.247   8.520   1.115 -0.2247  0.5706 -0.7112
12856SOL    HW139762   8.305   8.581   1.159  1.3559 -0.8375 -0.7464
12856SOL    HW239763   8.218   8.461   1.184 -0.2636  0.2536 -0.9973
12857SOL     OW39764   6.674   3.325   1.590  0.4081 -0.3344  0.2911
12857SOL    HW139765   6.699   3.405   1.543 -1.5498  0.2885  0.2055
12857SOL    HW239766   6.583   3.309   1.563  0.9883 -3.0796 -0.3485
12858SOL     OW39767   7.150   5.403   1.952  0.2710  0.1732  0.6051
12858SOL    HW139768   7.187   5.465   2.015  2.5160 -0.7989  0.3472
12858SOL    HW239769   7.146   5.320   2.000  0.9049 -0.3159 -0.1662
12859SOL     OW39770   4.836   2.819   1.709 -0.2289  0.0540  0.2492
12859SOL    HW139771   4.890   2.740   1.704 -0.9893 -0.5459  1.2697
12859SOL    HW239772   4.883   2.876   1.770 -0.8127 -0.5307  1.2585
12860SOL     OW39773   3.413   1.835   2.438 -0.6147 -0.2113 -0.0817
12860SOL    HW139774   3.472   1.835   2.362 -1.0302  1.2337 -0.4391
12860SOL    HW239775   3.413   1.926   2.468 -1.1575 -0.5869  1.1138
12861SOL     OW39776   7.329   3.874   1.952  0.3580 -0.0132 -0.1675
12861SOL    HW139777   7.296   3.800   1.901 -1.3529  1.4497 -1.2835
12861SOL    HW239778   7.385   3.923   1.892  0.5769  0.2233  0.2203
12862SOL     OW39779   7.240   3.325   7.238  0.3330 -0.3113 -0.5355
12862SOL    HW139780   7.317   3.380   7.222  0.1167  0.1740  0.0498
12862SOL    HW239781   7.194   3.324   7.154 -0.2870  1.4063 -0.2732
12863SOL     OW39782   7.904   5.627   7.606 -0.1856  0.0907  0.2933
12863SOL    HW139783   7.906   5.531   7.606  2.6005  0.0766  0.3797
12863SOL    HW239784   7.835   5.649   7.669 -2.5225 -1.7716 -1.4086
12864SOL     OW39785   2.646   0.110   2.722 -0.3403 -0.4074 -0.0274
12864SOL    HW139786   2.726   0.163   2.727 -1.3560  1.1221  0.5293
12864SOL    HW239787   2.583   0.165   2.677 -1.9468 -0.4209  2.0490
12865SOL     OW39788   2.709   7.589   7.917 -0.1154 -0.0672  0.8523
12865SOL    HW139789   2.614   7.586   7.921 -0.1209 -3.3762  1.8756
12865SOL    HW239790   2.732   7.530   7.845  1.2089  2.2289 -0.7208
12866SOL     OW39791   3.432   7.256   7.675 -0.2300  0.3893  0.1249
12866SOL    HW139792   3.381   7.204   7.737 -0.7891 -0.1193 -0.7534
12866SOL    HW239793   3.375   7.328   7.650 -0.1867  0.3279 -0.1613
12867SOL     OW39794   7.876   7.999   2.492 -0.0418 -0.1086 -0.2433
12867SOL    HW139795   7.943   8.057   2.459  1.1935 -1.6370 -0.5433
12867SOL    HW239796   7.845   7.951   2.415 -0.5019 -0.3671  0.0983
12868SOL     OW39797   3.699   3.301   7.612  0.1614  0.0525 -0.2598
12868SOL    HW139798   3.641   3.232   7.579  0.4377  0.1977 -1.0595
12868SOL    HW239799   3.784   3.283   7.572  0.6414 -0.0417  0.7538
12869SOL     OW39800   2.868   8.384   7.749  0.2201  0.0151  0.1770
12869SOL    HW139801   2.911   8.392   7.664  0.7266  1.5389  0.5453
12869SOL    HW239802   2.874   8.472   7.787 -1.1053 -0.3272  1.2590
12870SOL     OW39803   2.434   1.463   6.408 -0.2174 -0.2454 -0.5112
12870SOL    HW139804   2.500   1.498   6.348  0.8069 -3.3963 -1.4261
12870SOL    HW239805   2.361   1.525   6.402  1.0594  1.1820 -2.6542
12871SOL     OW39806   1.366   1.622   5.593  0.4768 -0.2280  0.3631
12871SOL    HW139807   1.286   1.672   5.579 -1.0442 -2.8036 -0.7943
12871SOL    HW239808   1.428   1.659   5.530 -0.2364  0.8192  0.2426
12872SOL     OW39809   3.708   0.405   5.631 -0.3547  0.5454 -0.0807
12872SOL    HW139810   3.683   0.477   5.689  0.1394  1.1854 -0.6293
12872SOL    HW239811   3.803   0.413   5.623 -0.3228 -0.0358 -0.3298
12873SOL     OW39812   1.988   1.250   3.304  0.1829 -0.1058  0.2317
12873SOL    HW139813   2.083   1.264   3.312  0.4733 -2.3327  1.7135
12873SOL    HW239814   1.949   1.327   3.345  1.4050  0.0893  1.1036
12874SOL     OW39815   0.707   4.006   8.507 -0.3632  0.0813 -0.0315
12874SOL    HW139816   0.772   3.939   8.529 -0.1365  0.0501 -0.7661
12874SOL    HW239817   0.624   3.972   8.540  0.2565  1.0360  2.8100
12875SOL     OW39818   8.563   5.951   6.222 -0.6409  0.6077  0.0748
12875SOL    HW139819   8.641   6.005   6.232  0.2635 -0.5821 -0.3106
12875SOL    HW239820   8.569   5.887   6.293 -1.6855  0.9776  0.5185
12876SOL     OW39821   2.734   6.838   6.458 -0.2483  0.6466 -0.2988
12876SOL    HW139822   2.670   6.794   6.403  0.9193  0.9625 -1.9972
12876SOL    HW239823   2.683   6.899   6.512 -1.5153 -0.3022 -0.3958
12877SOL     OW39824   3.384   7.334   7.262 -0.3632 -0.2706  0.4670
12877SOL    HW139825   3.372   7.255   7.209  2.8071 -1.2771  1.0078
12877SOL    HW239826   3.312   7.332   7.325 -0.4640 -2.6853  0.3763
12878SOL     OW39827   8.106   4.846   3.722  0.1320 -0.2415  0.1151
12878SOL    HW139828   8.138   4.781   3.660  0.2249  0.0663 -0.1646
12878SOL    HW239829   8.175   4.912   3.726  0.2635 -0.4121  0.7823
12879SOL     OW39830   2.330   5.789   3.278  0.1507  0.0950 -0.1412
12879SOL    HW139831   2.351   5.880   3.260  2.5231 -0.3516  0.0132
12879SOL    HW239832   2.286   5.790   3.363 -0.8023  1.1509 -0.6231
12880SOL     OW39833   6.355   7.062   2.643  0.2038  0.1087  0.2418
12880SOL    HW139834   6.409   7.070   2.721  1.3608  0.0361 -0.5364
12880SOL    HW239835   6.335   7.152   2.618 -0.9728  0.1196  1.1467
12881SOL     OW39836   4.103   2.496   1.456  0.5522 -0.5741 -0.2914
12881SOL    HW139837   4.084   2.431   1.388 -0.4259 -0.5931 -0.0147
12881SOL    HW239838   4.076   2.454   1.538  0.0310  0.1249 -0.0975
12882SOL     OW39839   7.613   8.156   4.389  0.3542 -0.0258  0.6223
12882SOL    HW139840   7.619   8.160   4.293  0.5999 -0.3263  0.6264
12882SOL    HW239841   7.679   8.218   4.419 -0.5553  1.0025  0.5878
12883SOL     OW39842   0.098   6.088   6.478 -0.0350 -0.0921 -0.0923
12883SOL    HW139843   0.125   6.179   6.488  0.1882 -0.3711  3.0062
12883SOL    HW239844   0.181   6.040   6.469 -0.1587 -0.0187 -1.8742
12884SOL     OW39845   8.518   0.569   6.975  0.2478  0.1773 -0.8603
12884SOL    HW139846   8.588   0.634   6.967  0.0097  0.8289  1.5585
12884SOL    HW239847   8.438   0.620   6.985 -0.0942 -0.4970 -0.0015
12885SOL     OW39848   6.450   7.344   7.089  0.6089  0.2161  0.2772
12885SOL    HW139849   6.418   7.401   7.018 -2.5815 -0.6678  0.8567
12885SOL    HW239850   6.483   7.267   7.045 -1.0829 -0.2001 -0.3514
12886SOL     OW39851   0.866   0.065   3.010  0.4202 -0.3026 -0.2161
12886SOL    HW139852   0.825  -0.020   2.993 -0.1792  0.4237 -2.7621
12886SOL    HW239853   0.829   0.093   3.093 -2.1156 -0.9734 -1.0391
12887SOL     OW39854   8.444   4.407   6.907  0.1767 -0.5382 -0.3671
12887SOL    HW139855   8.494   4.330   6.881  0.6416 -0.5061  0.4078
12887SOL    HW239856   8.509   4.478   6.912  0.1879 -0.6193  1.1985
12888SOL     OW39857   6.319   5.739   3.443  0.2348 -0.0053  0.8688
12888SOL    HW139858   6.244   5.798   3.453 -0.1115  0.0334 -1.4616
12888SOL    HW239859   6.282   5.652   3.460 -0.3241  0.0382 -0.0209
12889SOL     OW39860   7.834   5.563   0.957  0.3915 -0.1184 -0.2023
12889SOL    HW139861   7.926   5.580   0.976 -0.1790  1.1468  1.6868
12889SOL    HW239862   7.795   5.543   1.042 -1.2963  0.5609 -0.7658
12890SOL     OW39863   0.211   5.944   6.737 -0.5915  0.1683 -0.7085
12890SOL    HW139864   0.191   5.852   6.717  2.4073 -0.4384 -1.4586
12890SOL    HW239865   0.126   5.988   6.736 -1.9941 -2.3515 -1.6412
12891SOL     OW39866   0.964   2.729   6.936 -0.4800  0.1265  0.0327
12891SOL    HW139867   0.902   2.795   6.904  2.2373  2.6130 -0.5610
12891SOL    HW239868   1.017   2.708   6.859 -0.0282 -1.3067  0.7052
12892SOL     OW39869   7.046   6.706   3.282 -0.0090  0.2737 -0.0369
12892SOL    HW139870   7.065   6.794   3.252 -2.1156  0.5441 -0.7605
12892SOL    HW239871   7.097   6.649   3.224  0.7517  0.9764 -0.0736
12893SOL     OW39872   5.537   0.618   4.194 -0.2317 -0.6111 -0.1872
12893SOL    HW139873   5.597   0.684   4.228  0.2331  0.0941 -2.2252
12893SOL    HW239874   5.562   0.537   4.239 -0.5648  0.4820  2.0793
12894SOL     OW39875   7.654   2.155   6.906  0.0361  0.3071  0.3014
12894SOL    HW139876   7.738   2.125   6.943 -0.3100 -0.6285  0.3608
12894SOL    HW239877   7.679   2.216   6.837  0.7907 -0.3424 -0.0164
12895SOL     OW39878   7.568   7.958   6.337 -0.3732  0.0178  0.6262
12895SOL    HW139879   7.652   7.963   6.383  0.1111 -0.6439 -0.1694
12895SOL    HW239880   7.510   8.014   6.389  0.3607 -0.0781  1.5954
12896SOL     OW39881   0.476   3.660   6.039 -0.1719 -0.1788 -0.0966
12896SOL    HW139882   0.498   3.579   6.086  0.1232 -0.6025 -0.9386
12896SOL    HW239883   0.404   3.635   5.982  0.5498 -0.1081 -1.0635
12897SOL     OW39884   7.321   5.630   4.727  0.4506 -0.3862 -0.9917
12897SOL    HW139885   7.237   5.630   4.680 -0.5807 -1.2766  0.7789
12897SOL    HW239886   7.322   5.547   4.774  2.0286 -0.0694 -0.4258
12898SOL     OW39887   6.131   1.770   2.154 -0.3789 -0.2877 -0.5533
12898SOL    HW139888   6.187   1.811   2.089  0.0219  0.5215  0.2876
12898SOL    HW239889   6.191   1.743   2.224 -0.6281 -2.2360 -1.0112
12899SOL     OW39890   1.547   2.881   1.464  0.8135 -0.0744 -0.5285
12899SOL    HW139891   1.581   2.792   1.452  1.0548  0.1331 -1.4839
12899SOL    HW239892   1.466   2.882   1.413  0.2868 -0.0326  0.2891
12900SOL     OW39893   1.947   6.124   7.038  1.0564 -0.6719 -0.2163
12900SOL    HW139894   1.975   6.196   7.095 -1.0565  0.2938 -0.2877
12900SOL    HW239895   1.888   6.072   7.092 -0.5443 -0.0502 -1.2827
12901SOL     OW39896   2.244   6.520   1.911  0.2820 -0.4427 -0.2920
12901SOL    HW139897   2.213   6.608   1.888 -0.3526 -0.4754  0.3692
12901SOL    HW239898   2.166   6.476   1.945  0.4707 -1.4407 -1.0968
12902SOL     OW39899   4.593   1.919   7.387  0.2953  0.3005 -0.6169
12902SOL    HW139900   4.670   1.964   7.421 -0.2390  1.2621 -0.6388
12902SOL    HW239901   4.588   1.945   7.295 -0.1379  0.3597 -0.5786
12903SOL     OW39902   4.793   2.912   6.195 -0.4375 -0.4479 -0.0110
12903SOL    HW139903   4.820   2.993   6.153 -0.6231 -0.4369 -0.1081
12903SOL    HW239904   4.867   2.890   6.253 -0.0735 -0.6012 -0.5291
12904SOL     OW39905   7.174   0.699   6.583 -0.3018 -0.3693  0.2723
12904SOL    HW139906   7.269   0.691   6.590 -0.0013  0.5216 -1.9588
12904SOL    HW239907   7.143   0.610   6.566  0.2286 -0.5331  0.1515
12905SOL     OW39908   2.152   2.200   6.988  0.0977  0.1749  0.2729
12905SOL    HW139909   2.108   2.199   7.073 -1.7970  1.2484 -0.6281
12905SOL    HW239910   2.216   2.130   6.994  1.0193  1.1053  3.0666
12906SOL     OW39911   3.344   7.416   0.800  0.5896  0.3611  0.1724
12906SOL    HW139912   3.435   7.427   0.826  1.0765 -0.2822 -1.1782
12906SOL    HW239913   3.334   7.471   0.722 -0.1318  0.3003  0.2101
12907SOL     OW39914   3.186   8.512   5.551  0.4187 -0.2808  0.3069
12907SOL    HW139915   3.143   8.465   5.622 -1.8594 -0.4439 -1.0931
12907SOL    HW239916   3.213   8.444   5.490  1.1383 -0.0536  0.3649
12908SOL     OW39917   6.612   7.728   4.432  0.1043  0.3500 -0.5107
12908SOL    HW139918   6.685   7.788   4.443  1.0747 -0.8704 -0.0242
12908SOL    HW239919   6.614   7.672   4.509 -1.2653  0.1936 -0.5592
12909SOL     OW39920   7.035   0.661   1.191  0.2156 -0.4580  0.3413
12909SOL    HW139921   7.060   0.719   1.119 -0.8623  1.9441  1.7572
12909SOL    HW239922   7.107   0.599   1.198  1.8213  1.1542 -0.8374
12910SOL     OW39923   8.460   2.771   6.385  0.0716 -0.3923 -0.1847
12910SOL    HW139924   8.371   2.788   6.356  0.3900 -0.1985 -1.0826
12910SOL    HW239925   8.466   2.812   6.471 -0.1806  1.1384 -0.8614
12911SOL     OW39926   4.577   3.066   7.714 -0.0291  0.5370  0.0007
12911SOL    HW139927   4.488   3.078   7.746  0.1014 -2.6292  1.8680
12911SOL    HW239928   4.567   3.041   7.622 -1.0338  0.4176  0.1393
12912SOL     OW39929   4.955   6.425   4.361  0.3248 -0.3766 -0.0067
12912SOL    HW139930   4.939   6.519   4.370  0.7465 -0.3330  0.2836
12912SOL    HW239931   4.998   6.416   4.276  1.7863 -0.1158  0.6855
12913SOL     OW39932   6.369   6.161   7.624 -0.0575 -0.9489  0.2462
12913SOL    HW139933   6.407   6.082   7.585  1.3879 -0.4621  0.6321
12913SOL    HW239934   6.344   6.133   7.712  0.2794 -1.0282  0.3185
12914SOL     OW39935   5.511   5.403   4.563 -0.4516  0.2635 -0.4032
12914SOL    HW139936   5.567   5.394   4.640  0.3249  1.4911 -0.8000
12914SOL    HW239937   5.461   5.483   4.579 -1.3774 -0.2791 -0.5149
12915SOL     OW39938   2.334   4.945   5.333 -0.2784 -0.1185  0.0757
12915SOL    HW139939   2.408   4.913   5.384 -0.3938 -0.6825 -0.1026
12915SOL    HW239940   2.316   5.032   5.369 -0.5201 -0.6006  1.1607
12916SOL     OW39941   0.773   8.444   0.987  0.1137 -0.1727  0.0148
12916SOL    HW139942   0.810   8.359   0.961  0.5437  0.0801 -0.2135
12916SOL    HW239943   0.759   8.490   0.905  1.5490  0.6618  0.2032
12917SOL     OW39944   2.531   1.296   3.431 -0.0970 -0.2745 -0.3884
12917SOL    HW139945   2.529   1.340   3.517 -2.0195 -0.5879 -0.2242
12917SOL    HW239946   2.601   1.231   3.439 -1.1874 -1.3190  1.5094
12918SOL     OW39947   3.440   1.854   8.004  0.3918  0.5780 -0.1577
12918SOL    HW139948   3.514   1.793   8.001 -0.2958 -0.2982  0.3162
12918SOL    HW239949   3.474   1.934   7.965  1.5729  0.1694 -0.0169
12919SOL     OW39950   3.179   3.878   7.316  0.0864  0.4059 -0.9214
12919SOL    HW139951   3.116   3.919   7.256 -1.6043  1.5493  1.4925
12919SOL    HW239952   3.243   3.947   7.334 -0.1288  0.4828 -0.4442
12920SOL     OW39953   5.900   2.747   0.909  0.0719 -0.0847 -0.0902
12920SOL    HW139954   5.854   2.669   0.878  1.2983  0.1169 -2.6767
12920SOL    HW239955   5.969   2.713   0.966 -0.8605 -0.6653  0.7253
12921SOL     OW39956   4.065   5.757   3.421 -0.0033  0.5961  0.8312
12921SOL    HW139957   4.021   5.830   3.464 -0.0325  0.2512  1.4076
12921SOL    HW239958   4.111   5.796   3.347  0.2984  1.2540  1.3587
12922SOL     OW39959   7.726   4.412   4.096 -0.2941  0.2942  0.2452
12922SOL    HW139960   7.634   4.388   4.081 -0.1291 -0.7899  0.8537
12922SOL    HW239961   7.775   4.335   4.068  0.5125  1.2251 -0.9852
12923SOL     OW39962   5.196   3.868   3.413 -0.5027 -0.2019 -0.1286
12923SOL    HW139963   5.170   3.947   3.459  1.1449 -0.1036  0.7059
12923SOL    HW239964   5.169   3.796   3.470 -2.5571 -0.3296 -1.1684
12924SOL     OW39965   2.822   2.460   1.409  0.1346 -0.0081  0.0808
12924SOL    HW139966   2.780   2.520   1.471  0.0319  0.1051 -0.0979
12924SOL    HW239967   2.750   2.426   1.356  0.1833 -0.3597  0.2415
12925SOL     OW39968   2.091   5.465   7.558 -0.3952 -0.2024 -0.0213
12925SOL    HW139969   2.139   5.417   7.626  3.3704  0.5437 -1.8758
12925SOL    HW239970   2.141   5.547   7.547 -1.6459  0.3000 -2.7141
12926SOL     OW39971   4.381   1.961   1.024 -0.6222 -0.3822 -0.2759
12926SOL    HW139972   4.305   1.903   1.032 -1.8380  1.1515 -0.0142
12926SOL    HW239973   4.343   2.046   1.000  1.1394  0.1491 -1.3340
12927SOL     OW39974   1.903   8.540   0.929 -0.0716  0.1201  0.1576
12927SOL    HW139975   1.877   8.458   0.887  0.2723  0.4968 -0.8080
12927SOL    HW239976   1.892   8.523   1.023  0.2912 -1.1396 -0.0097
12928SOL     OW39977   3.111   5.591   4.909  0.6383  0.3534  0.1092
12928SOL    HW139978   3.104   5.621   4.818  0.2208  0.3188  0.1298
12928SOL    HW239979   3.143   5.501   4.901  0.3901  0.2758 -0.0117
12929SOL     OW39980   6.078   4.729   0.204 -0.0555 -0.5209 -0.1324
12929SOL    HW139981   5.986   4.704   0.189 -0.4859  0.6180  0.5194
12929SOL    HW239982   6.073   4.817   0.241  1.2970 -0.5777  0.2146
12930SOL     OW39983   5.039   8.362   3.384 -0.1867  0.2555 -0.0673
12930SOL    HW139984   4.961   8.357   3.329  0.2777  0.4343 -0.7575
12930SOL    HW239985   5.082   8.443   3.356  0.7534 -0.3428 -0.3946
12931SOL     OW39986   7.170   7.305   7.705 -0.0255  0.1088  0.4959
12931SOL    HW139987   7.151   7.398   7.718 -2.1887 -0.1810 -0.1932
12931SOL    HW239988   7.089   7.260   7.728 -0.4327 -1.2794 -2.9672
12932SOL     OW39989   7.249   5.473   1.322  0.2897 -0.6028 -0.5518
12932SOL    HW139990   7.168   5.523   1.331  1.0090  0.5226 -0.1027
12932SOL    HW239991   7.234   5.394   1.375 -0.6117 -0.5515 -0.7120
12933SOL     OW39992   6.799   7.478   5.868 -0.2696 -0.4804  1.1394
12933SOL    HW139993   6.852   7.413   5.823 -0.5440 -0.8825  1.3941
12933SOL    HW239994   6.795   7.448   5.959 -0.9837 -0.4901  1.1114
12934SOL     OW39995   1.576   5.292   1.735 -0.5121  0.4502  0.1717
12934SOL    HW139996   1.503   5.260   1.789  0.8210 -0.2081  1.6650
12934SOL    HW239997   1.585   5.384   1.759 -1.1597  0.6700 -0.3990
12935SOL     OW39998   2.775   2.612   6.702  0.3236  0.3472 -0.1073
12935SOL    HW139999   2.814   2.698   6.716 -1.2735  1.0767  0.0832
12935SOL    HW240000   2.802   2.587   6.613  2.4161  0.1202  0.5429
12936SOL     OW40001   1.624   6.023   5.767  0.5040  0.1914  0.1278
12936SOL    HW140002   1.547   5.980   5.805  0.2177  0.3657 -0.2445
12936SOL    HW240003   1.597   6.043   5.678  0.6286  1.1622  0.3046
12937SOL     OW40004   1.227   6.548   2.727 -0.1870 -0.4516  0.1014
12937SOL    HW140005   1.232   6.644   2.734 -0.1047 -0.4510  0.0453
12937SOL    HW240006   1.134   6.529   2.719 -0.4787 -0.5783  2.9179
12938SOL     OW40007   2.232   8.390   3.873 -0.4324 -0.0451 -0.9749
12938SOL    HW140008   2.253   8.377   3.780  0.0740 -1.4708 -0.6860
12938SOL    HW240009   2.178   8.313   3.896  1.3042 -0.9055  0.4538
12939SOL     OW40010   1.049   3.103   3.575 -0.1126 -0.6075 -0.0176
12939SOL    HW140011   1.001   3.099   3.658  0.3723  0.6212  0.3499
12939SOL    HW240012   1.112   3.031   3.580 -0.5706 -0.9798  0.3739
12940SOL     OW40013   6.421   1.778   3.347  0.1479  0.0149  0.1885
12940SOL    HW140014   6.449   1.721   3.276 -1.2315 -1.0744  0.4789
12940SOL    HW240015   6.344   1.823   3.313  0.5723  0.8956  0.3574
12941SOL     OW40016   2.666   3.225   0.124  0.2254  0.3308  0.0769
12941SOL    HW140017   2.625   3.167   0.187 -1.8750  1.4616 -0.1646
12941SOL    HW240018   2.608   3.224   0.047  2.2467 -0.3311 -1.5426
12942SOL     OW40019   1.797   3.385   4.939 -0.2318 -0.5119  0.0714
12942SOL    HW140020   1.827   3.330   4.867  1.2960  0.5687 -0.1662
12942SOL    HW240021   1.726   3.437   4.901  1.7814  1.4254 -1.3263
12943SOL     OW40022   4.581   0.524   4.791 -0.4767  0.2111 -0.0479
12943SOL    HW140023   4.667   0.490   4.812 -0.9600 -1.7109 -0.9042
12943SOL    HW240024   4.595   0.580   4.715  0.1397  0.6405  0.3830
12944SOL     OW40025   7.451   0.629   1.668  0.0876 -0.1180 -0.9510
12944SOL    HW140026   7.458   0.539   1.637 -1.0555 -0.4155 -0.4041
12944SOL    HW240027   7.436   0.621   1.762  4.2008  0.7810 -0.0399
12945SOL     OW40028   1.532   7.792   7.027  0.3378  0.0553 -0.6471
12945SOL    HW140029   1.440   7.767   7.019  0.6288 -0.9163 -1.1465
12945SOL    HW240030   1.531   7.886   7.043 -0.8147 -0.1871  0.9683
12946SOL     OW40031   7.812   4.135   2.198  0.3540 -0.1708 -0.0096
12946SOL    HW140032   7.824   4.199   2.269 -0.9435 -3.2573  3.2948
12946SOL    HW240033   7.875   4.065   2.218  1.2016 -0.4300 -3.0640
12947SOL     OW40034   7.000   2.657   7.663  0.4489  0.2821 -0.3308
12947SOL    HW140035   7.073   2.596   7.651  1.2510  1.1090  0.2119
12947SOL    HW240036   6.922   2.605   7.643  0.7523 -2.0422  3.5100
12948SOL     OW40037   1.184   7.533   3.765 -0.4403  0.4201 -0.1962
12948SOL    HW140038   1.232   7.534   3.848 -2.6936 -0.3725  1.1937
12948SOL    HW240039   1.147   7.446   3.759  0.2769  0.1969 -2.4747
12949SOL     OW40040   3.756   3.142   1.048  0.0168 -0.1591 -0.0484
12949SOL    HW140041   3.843   3.169   1.078 -0.6637  0.9591  0.9754
12949SOL    HW240042   3.728   3.212   0.989 -0.6943  0.0947  0.5889
12950SOL     OW40043   7.087   5.179   2.801  0.2859 -0.0052 -0.1851
12950SOL    HW140044   7.142   5.132   2.864  1.6873  1.0241 -0.5745
12950SOL    HW240045   7.054   5.254   2.849  0.7511  0.3796 -0.4580
12951SOL     OW40046   5.609   6.222   5.840  0.0688 -0.1916  0.0616
12951SOL    HW140047   5.690   6.190   5.800  1.6402  1.0881  2.0297
12951SOL    HW240048   5.585   6.153   5.902 -0.1762 -0.4353 -0.3040
12952SOL     OW40049   0.840   0.452   1.929  0.2300 -0.1858  0.4289
12952SOL    HW140050   0.752   0.481   1.908  0.1187  0.8994  2.1753
12952SOL    HW240051   0.828   0.375   1.984  0.3381  0.1918  0.9940
12953SOL     OW40052   1.743   1.408   7.009  0.3820 -0.2218  0.4517
12953SOL    HW140053   1.793   1.476   6.964 -0.0103 -1.0990 -1.4333
12953SOL    HW240054   1.754   1.426   7.102  2.0074  1.1516  0.0252
12954SOL     OW40055   1.367   0.879   5.665  0.0413  0.6363 -0.1109
12954SOL    HW140056   1.334   0.815   5.728  0.6610  0.0572 -0.3645
12954SOL    HW240057   1.328   0.962   5.693 -1.2910  0.0586 -0.1578
12955SOL     OW40058   3.531   2.657   3.572 -0.4644  0.2546 -0.3697
12955SOL    HW140059   3.607   2.694   3.617  0.2214 -1.1538 -0.3326
12955SOL    HW240060   3.510   2.721   3.504  1.9062 -0.1676 -1.5928
12956SOL     OW40061   8.058   1.513   6.708  0.6541 -0.4702  0.5808
12956SOL    HW140062   8.100   1.520   6.794  0.6307 -0.2584  0.5751
12956SOL    HW240063   7.990   1.581   6.709 -0.5295 -1.6133  1.0684
12957SOL     OW40064   4.395   4.921   5.303 -0.4393  0.2670  0.2725
12957SOL    HW140065   4.404   4.941   5.396  1.1900  2.6160 -0.3158
12957SOL    HW240066   4.323   4.977   5.273  0.4537  1.1418 -0.2838
12958SOL     OW40067   0.033   3.567   7.516 -0.2695  0.8054 -0.3632
12958SOL    HW140068  -0.029   3.584   7.587 -0.0678 -1.2092  0.3526
12958SOL    HW240069  -0.015   3.513   7.454 -0.3774  2.3901 -1.7076
12959SOL     OW40070   7.495   1.712   4.995 -0.1539 -0.0501  0.1324
12959SOL    HW140071   7.561   1.748   5.056 -0.3070  0.1030  0.2082
12959SOL    HW240072   7.421   1.688   5.051 -0.8341  1.3373 -0.1412
12960SOL     OW40073   5.269   2.273   8.153  0.0982 -1.1555  0.4793
12960SOL    HW140074   5.263   2.209   8.224  1.8218  0.6106  2.3411
12960SOL    HW240075   5.358   2.307   8.158 -0.3407  0.4589 -1.2843
12961SOL     OW40076   3.661   7.458   6.026  0.1954 -0.1065  0.0485
12961SOL    HW140077   3.621   7.515   6.092  0.8705  0.9577 -0.4521
12961SOL    HW240078   3.635   7.496   5.942  0.4581 -0.6726 -0.2950
12962SOL     OW40079   6.287   1.973   0.319 -0.1562  0.1481  0.4347
12962SOL    HW140080   6.291   1.986   0.224  0.7356  2.7522  0.7496
12962SOL    HW240081   6.377   1.954   0.344  0.5712  3.8605  1.1724
12963SOL     OW40082   4.447   7.797   4.641 -0.0749 -0.8265 -0.6290
12963SOL    HW140083   4.382   7.777   4.573 -0.2826  0.0112 -0.6799
12963SOL    HW240084   4.418   7.880   4.678  1.4107 -0.0305 -1.1838
12964SOL     OW40085   6.198   7.407   4.342 -0.3373  0.5472  0.0933
12964SOL    HW140086   6.185   7.364   4.258 -1.4279 -0.5668  0.7783
12964SOL    HW240087   6.292   7.396   4.360 -0.3561 -0.5055 -0.3312
12965SOL     OW40088   0.433   4.235   0.639 -0.3807  0.2927 -0.1682
12965SOL    HW140089   0.409   4.174   0.709  0.3368 -0.0078 -0.1692
12965SOL    HW240090   0.403   4.193   0.559  0.1987 -0.1214 -0.1789
12966SOL     OW40091   6.702   5.416   6.443 -0.6185  0.4042  0.2587
12966SOL    HW140092   6.648   5.410   6.522  0.5682 -2.5897  0.9594
12966SOL    HW240093   6.738   5.505   6.446  0.2801  0.0619  3.7742
12967SOL     OW40094   1.863   4.486   4.833 -0.3310  0.1419  0.0450
12967SOL    HW140095   1.955   4.498   4.809 -0.2449 -2.7192 -1.5765
12967SOL    HW240096   1.864   4.416   4.899 -1.2984  0.7996  0.7860
12968SOL     OW40097   3.090   7.101   2.337  0.2871 -0.3136 -0.0462
12968SOL    HW140098   3.080   7.119   2.431  0.2761  0.0124 -0.1080
12968SOL    HW240099   3.024   7.035   2.317  2.4430 -2.9724  0.8891
12969SOL     OW40100   8.192   0.061   1.604  0.2096 -0.3898 -0.1019
12969SOL    HW140101   8.136   0.134   1.575 -0.5969 -1.0482 -0.2312
12969SOL    HW240102   8.278   0.081   1.566 -0.2882 -0.1113 -1.1388
12970SOL     OW40103   5.159   2.681   4.790  0.0378  0.2340 -0.1178
12970SOL    HW140104   5.226   2.667   4.723 -1.2912 -0.3808 -1.3725
12970SOL    HW240105   5.196   2.642   4.869  2.4192  2.5729  0.0455
12971SOL     OW40106   2.904   1.851   8.109  0.2148  0.4405  0.4197
12971SOL    HW140107   2.926   1.826   8.199  1.1209 -0.7416 -0.1081
12971SOL    HW240108   2.974   1.911   8.083  1.0068 -0.7065 -0.1292
12972SOL     OW40109   8.471   3.302   8.526  0.3765 -0.2038  0.6006
12972SOL    HW140110   8.521   3.331   8.450  1.5203 -0.7222  1.1444
12972SOL    HW240111   8.385   3.279   8.490  0.4502  0.8520 -0.3129
12973SOL     OW40112   4.708   0.283   5.421 -0.0889 -0.2144 -0.1905
12973SOL    HW140113   4.621   0.304   5.386  0.3444  1.7133 -0.1798
12973SOL    HW240114   4.711   0.187   5.420 -1.6939 -0.2959 -1.4585
12974SOL     OW40115   7.819   7.888   3.305 -0.4384  0.5414  0.6756
12974SOL    HW140116   7.769   7.936   3.371 -0.8808  0.9909  0.0197
12974SOL    HW240117   7.764   7.890   3.227  0.2227  0.2805  0.1949
12975SOL     OW40118   4.987   6.980   4.262 -0.0085  0.5337  0.1709
12975SOL    HW140119   4.903   6.941   4.287  0.6825 -0.8014  0.4781
12975SOL    HW240120   4.989   7.064   4.308 -1.7270  1.2154 -0.8654
12976SOL     OW40121   1.205   4.638   8.161 -0.0789 -0.0698 -0.2392
12976SOL    HW140122   1.188   4.544   8.151  1.1319 -0.2775 -0.5177
12976SOL    HW240123   1.159   4.679   8.088  0.3016 -0.5675 -0.7702
12977SOL     OW40124   4.647   7.130   4.178 -0.5553 -0.1789 -0.1431
12977SOL    HW140125   4.677   7.056   4.230  2.2031  0.5149 -0.6229
12977SOL    HW240126   4.626   7.198   4.242  0.9590  0.0152  0.1668
12978SOL     OW40127   6.903   5.149   1.873  0.0130 -0.8870  0.1108
12978SOL    HW140128   6.868   5.237   1.886  0.6923 -0.0445 -2.8928
12978SOL    HW240129   6.965   5.137   1.945  1.1598  1.8378 -0.2712
12979SOL     OW40130   6.321   6.335   5.597 -0.9089  0.3891 -0.2706
12979SOL    HW140131   6.279   6.392   5.533  0.5857  0.0468 -1.6415
12979SOL    HW240132   6.277   6.251   5.588  0.3582 -0.1553 -2.1567
12980SOL     OW40133   5.367   8.520   2.706  0.6838 -0.2385 -0.7267
12980SOL    HW140134   5.306   8.546   2.636 -0.5675 -1.6631 -0.2273
12980SOL    HW240135   5.365   8.592   2.768  0.3896  0.2300 -1.2691
12981SOL     OW40136   1.500   7.040   0.818 -0.2796 -0.2830 -0.4956
12981SOL    HW140137   1.554   7.000   0.749 -0.1050 -0.6398 -0.1567
12981SOL    HW240138   1.480   7.128   0.785  0.1860 -0.2875 -0.7987
12982SOL     OW40139   7.638   3.055   8.407  0.2893  0.1315 -0.5509
12982SOL    HW140140   7.574   3.113   8.446  2.0975  0.7426  1.7076
12982SOL    HW240141   7.704   3.113   8.368  0.8023 -0.4264 -0.5452
12983SOL     OW40142   1.897   7.954   5.558 -0.3561  1.0167  0.6482
12983SOL    HW140143   1.979   7.984   5.597 -0.1903  1.8699 -0.2968
12983SOL    HW240144   1.896   7.995   5.471 -0.4252 -1.2270 -0.4920
12984SOL     OW40145   6.105   6.191   3.344  0.0253  0.3800  0.1572
12984SOL    HW140146   6.154   6.272   3.334 -0.5468  0.6233 -0.7902
12984SOL    HW240147   6.022   6.218   3.384  0.1369  0.1467  0.5544
12985SOL     OW40148   8.587   5.281   7.525  0.1888  0.3130 -0.3610
12985SOL    HW140149   8.664   5.275   7.469  0.7305  0.8058  0.3117
12985SOL    HW240150   8.523   5.222   7.485  0.7789  0.1941 -1.1423
12986SOL     OW40151   7.781   5.280   3.688 -0.1473  0.3269 -0.2904
12986SOL    HW140152   7.820   5.192   3.693  1.4730  1.0290 -0.0839
12986SOL    HW240153   7.687   5.264   3.697  0.2548 -1.1941  2.1626
12987SOL     OW40154   2.664   3.932   4.749  0.2186 -0.2923  0.1091
12987SOL    HW140155   2.692   4.024   4.742 -0.2335 -0.2448 -1.5825
12987SOL    HW240156   2.621   3.927   4.834  0.1641  1.0948  0.1977
12988SOL     OW40157   2.345   5.907   5.835 -0.0092 -0.1900 -0.8997
12988SOL    HW140158   2.304   5.992   5.816 -0.7340 -0.5701 -1.0516
12988SOL    HW240159   2.439   5.925   5.830 -0.0412  1.2813  1.8782
12989SOL     OW40160   3.137   7.161   1.436  0.0475  0.2976 -0.6344
12989SOL    HW140161   3.200   7.183   1.367 -1.2537 -2.3903 -2.8488
12989SOL    HW240162   3.052   7.175   1.396 -0.7728  0.0978  0.9712
12990SOL     OW40163   4.592   3.636   8.153  0.2980 -0.2375  0.0769
12990SOL    HW140164   4.686   3.648   8.161  0.0044  1.2379  1.9206
12990SOL    HW240165   4.580   3.541   8.157  1.7987 -0.5767 -2.1343
12991SOL     OW40166   6.702   5.420   6.169  0.0086 -0.3442 -0.2403
12991SOL    HW140167   6.696   5.325   6.157  0.4237 -0.4959  0.6420
12991SOL    HW240168   6.705   5.431   6.264  1.0485  0.4808 -0.3537
12992SOL     OW40169   3.260   3.154   7.663 -0.4744 -0.6084  0.0744
12992SOL    HW140170   3.289   3.139   7.753 -0.1855 -0.9445 -0.0709
12992SOL    HW240171   3.294   3.079   7.614 -0.1677 -0.1615 -0.4176
12993SOL     OW40172   3.659   5.952   6.687 -0.3157  0.1352 -0.2989
12993SOL    HW140173   3.588   5.971   6.749 -0.5312 -1.0151 -0.1766
12993SOL    HW240174   3.661   5.857   6.681 -0.0065  0.2053 -1.7301
12994SOL     OW40175   3.808   3.792   1.124  0.2412  0.2011 -0.2530
12994SOL    HW140176   3.742   3.761   1.062 -0.4645 -0.0523  0.6071
12994SOL    HW240177   3.889   3.748   1.097  0.4249  1.5865 -2.1855
12995SOL     OW40178   0.316   5.854   5.817 -0.0879 -0.3399 -0.1410
12995SOL    HW140179   0.338   5.943   5.787 -0.3355  0.0226  0.7159
12995SOL    HW240180   0.395   5.803   5.798 -0.5477 -0.3780 -2.2536
12996SOL     OW40181   6.680   2.251   6.104  0.3085  0.1173 -0.3614
12996SOL    HW140182   6.699   2.226   6.013  2.5166 -0.7954  0.2588
12996SOL    HW240183   6.586   2.240   6.113  0.2345 -1.2312 -2.1421
12997SOL     OW40184   1.643   1.478   4.192 -0.2769  0.3806 -0.6516
12997SOL    HW140185   1.582   1.523   4.134  0.8289 -0.2809 -2.4131
12997SOL    HW240186   1.702   1.547   4.222 -0.4892  0.6366 -0.8162
12998SOL     OW40187   3.390   6.885   8.248 -0.1767 -0.9928 -0.0136
12998SOL    HW140188   3.485   6.896   8.259 -0.5674  1.3060  1.8864
12998SOL    HW240189   3.380   6.794   8.220  2.5773 -1.2933 -0.3538
12999SOL     OW40190   2.792   6.529   3.674 -0.1583 -0.7771 -0.2375
12999SOL    HW140191   2.789   6.618   3.708  0.0185 -1.1396  0.7529
12999SOL    HW240192   2.811   6.539   3.581 -0.5446  0.2306 -0.2148
13000SOL     OW40193   3.206   6.040   4.787  0.0560 -0.1083  0.1855
13000SOL    HW140194   3.277   6.041   4.722  0.8708 -1.5956  1.0040
13000SOL    HW240195   3.235   6.102   4.854 -0.0450  0.2437 -0.0877
13001SOL     OW40196   3.658   4.748   7.346 -0.0270  0.1565  0.0428
13001SOL    HW140197   3.635   4.671   7.397  1.0331  0.9287  1.7817
13001SOL    HW240198   3.748   4.732   7.317 -0.4488 -0.0529 -1.2000
13002SOL     OW40199   6.224   2.964   2.727 -0.2067  0.0413  0.5961
13002SOL    HW140200   6.171   2.935   2.653 -1.8205  0.4148  1.5551
13002SOL    HW240201   6.165   2.959   2.802  0.9750  0.9762  1.6325
13003SOL     OW40202   4.924   7.275   6.615 -0.0513 -0.2217  0.5112
13003SOL    HW140203   4.949   7.280   6.707  0.7310  0.3404  0.2771
13003SOL    HW240204   4.844   7.326   6.608 -1.1309 -1.7362  1.2030
13004SOL     OW40205   3.195   2.784   5.881 -0.2341 -0.2430  0.5636
13004SOL    HW140206   3.221   2.809   5.793 -2.2190  2.1664  0.5549
13004SOL    HW240207   3.255   2.830   5.939 -0.0013 -0.4572  0.4927
13005SOL     OW40208   5.499   7.498   5.614 -0.5686 -0.8443 -0.0049
13005SOL    HW140209   5.518   7.404   5.616 -0.7556 -0.8803  0.1058
13005SOL    HW240210   5.466   7.512   5.525  1.4377 -0.4848 -0.7381
13006SOL     OW40211   7.875   1.803   7.374 -0.6290 -0.4700 -0.4534
13006SOL    HW140212   7.876   1.812   7.279 -1.3719 -0.6385 -0.4899
13006SOL    HW240213   7.958   1.761   7.395  1.0253  2.4224 -0.6739
13007SOL     OW40214   3.588   7.080   4.260  0.3406  0.0271  0.0301
13007SOL    HW140215   3.638   7.161   4.272 -0.9312  0.8285  0.1507
13007SOL    HW240216   3.653   7.010   4.263  1.7880  1.1662 -2.1994
13008SOL     OW40217   4.349   8.550   6.883 -0.1371 -0.0479 -0.1072
13008SOL    HW140218   4.369   8.498   6.805 -0.4905 -0.0292 -0.2139
13008SOL    HW240219   4.269   8.597   6.861  0.8240  1.4878 -0.4517
13009SOL     OW40220   3.058   6.647   3.256 -0.5474  0.4607 -0.4314
13009SOL    HW140221   3.097   6.645   3.169 -1.9080  1.2227 -1.0674
13009SOL    HW240222   3.120   6.596   3.310  1.1118  1.2825 -1.4735
13010SOL     OW40223   4.977   3.470   4.955 -0.6588  0.1871  0.1310
13010SOL    HW140224   4.977   3.416   4.876  2.4257 -1.9534  1.4020
13010SOL    HW240225   4.898   3.443   5.002 -0.4398 -1.5416 -0.3970
13011SOL     OW40226   4.610   3.656   0.324  0.6122  0.5462 -0.2669
13011SOL    HW140227   4.703   3.639   0.305  0.2661 -0.8382 -0.8641
13011SOL    HW240228   4.593   3.741   0.284  0.7022 -0.8872 -3.7452
13012SOL     OW40229   0.162   5.244   7.862 -0.0671  0.1857  0.1744
13012SOL    HW140230   0.175   5.251   7.957  1.8583 -3.9306  0.4525
13012SOL    HW240231   0.081   5.195   7.852 -0.4201  0.8633 -0.3476
13013SOL     OW40232   5.664   3.079   1.762 -0.6330  0.0656  0.6335
13013SOL    HW140233   5.718   3.010   1.724 -0.2189  0.6296  0.1780
13013SOL    HW240234   5.708   3.101   1.844  0.5570  1.3494 -0.2869
13014SOL     OW40235   0.915   2.337   4.115  0.0296 -0.4056 -0.1937
13014SOL    HW140236   0.828   2.349   4.078 -1.2636  3.2996  3.3546
13014SOL    HW240237   0.899   2.301   4.203  2.1498 -0.2613  0.3144
13015SOL     OW40238   7.175   6.368   7.003  0.1047  0.2080 -0.1910
13015SOL    HW140239   7.242   6.332   6.946  0.2618  1.3633 -0.7742
13015SOL    HW240240   7.223   6.395   7.082 -0.1760 -1.7753  0.7204
13016SOL     OW40241   6.166   5.708   8.401  0.0140 -0.0121 -0.2900
13016SOL    HW140242   6.072   5.704   8.381  0.2022 -1.5858 -1.0144
13016SOL    HW240243   6.170   5.691   8.495 -0.4719  1.0256 -0.0657
13017SOL     OW40244   0.811   4.292   1.913  0.4323  0.0796 -0.7391
13017SOL    HW140245   0.831   4.205   1.948 -1.0683 -0.4931 -1.2439
13017SOL    HW240246   0.741   4.278   1.850 -1.3379  1.8874  0.6713
13018SOL     OW40247   5.152   2.309   0.322 -0.3405  0.2595 -0.1264
13018SOL    HW140248   5.083   2.338   0.381 -0.8002 -1.1455  0.0650
13018SOL    HW240249   5.185   2.228   0.361  1.0770  0.6314 -0.4856
13019SOL     OW40250   4.179   0.850   4.947 -0.3304 -0.0175  0.2600
13019SOL    HW140251   4.208   0.891   4.866  0.2017 -0.8968 -0.0098
13019SOL    HW240252   4.107   0.905   4.978 -0.7734  0.1373 -0.9933
13020SOL     OW40253   1.366   5.437   0.775 -0.0252 -0.1797  0.2207
13020SOL    HW140254   1.289   5.381   0.786 -0.3610  0.5185  1.6505
13020SOL    HW240255   1.400   5.449   0.864  1.5408 -0.1851 -0.3455
13021SOL     OW40256   4.722   0.491   3.412  0.6232 -0.0978  0.4777
13021SOL    HW140257   4.807   0.473   3.372  0.3070 -1.1087  0.2413
13021SOL    HW240258   4.724   0.446   3.496  0.6506  0.6323  0.8831
13022SOL     OW40259   4.502   8.452   8.475 -0.0889  0.0053  0.1652
13022SOL    HW140260   4.465   8.376   8.430  1.3119  0.1940 -1.4339
13022SOL    HW240261   4.569   8.416   8.533 -0.3012 -0.0651  0.3688
13023SOL     OW40262   6.549   6.390   5.292  0.0767  0.5375 -0.2704
13023SOL    HW140263   6.511   6.462   5.343  1.5038  1.8725 -1.0343
13023SOL    HW240264   6.483   6.372   5.225 -1.5883 -0.8828  1.6037
13024SOL     OW40265   7.190   7.174   3.183 -0.0057 -0.4257 -0.3126
13024SOL    HW140266   7.262   7.217   3.229  0.5903 -1.4951 -0.2246
13024SOL    HW240267   7.115   7.183   3.242  0.0516  0.6594 -0.3866
13025SOL     OW40268   1.681   1.918   6.175  0.0467  0.2496  0.7700
13025SOL    HW140269   1.726   1.996   6.144 -0.7203  0.6686  0.6727
13025SOL    HW240270   1.690   1.922   6.271 -0.0736  0.5176  0.7731
13026SOL     OW40271   2.860   0.421   5.676  0.3807  0.1181 -0.1928
13026SOL    HW140272   2.795   0.383   5.735  0.7852  0.6640  0.6285
13026SOL    HW240273   2.942   0.377   5.699  0.2180 -1.0448 -1.6738
13027SOL     OW40274   0.589   1.654   3.734 -0.2556  0.3404  0.4510
13027SOL    HW140275   0.679   1.638   3.765 -0.8975 -0.8811  1.8107
13027SOL    HW240276   0.536   1.589   3.780 -1.7010  0.2652 -1.1954
13028SOL     OW40277   6.354   2.497   6.400 -0.6887 -0.1596  0.1294
13028SOL    HW140278   6.362   2.430   6.469  1.4130 -0.0198  0.0924
13028SOL    HW240279   6.378   2.579   6.443 -0.5811  0.1357 -0.4805
13029SOL     OW40280   5.268   3.482   5.407  0.0284 -0.6822  0.4600
13029SOL    HW140281   5.308   3.562   5.373 -1.3515 -0.2749 -0.2605
13029SOL    HW240282   5.259   3.425   5.331  0.5355 -1.3363  0.8792
13030SOL     OW40283   3.647   6.024   5.389  0.4389 -0.0533 -0.0356
13030SOL    HW140284   3.650   5.970   5.310 -0.7378 -0.1066 -0.0667
13030SOL    HW240285   3.611   5.967   5.457  0.9360  0.1481  0.4001
13031SOL     OW40286   5.377   6.913   2.320 -0.0731 -0.3152  0.3806
13031SOL    HW140287   5.363   7.000   2.357  0.4512 -0.6529  1.3945
13031SOL    HW240288   5.399   6.929   2.228 -0.3962  0.5912  0.4563
13032SOL     OW40289   0.375   7.712   1.188 -0.5610 -0.7436 -0.0180
13032SOL    HW140290   0.335   7.635   1.229 -1.9334  0.7735  1.6745
13032SOL    HW240291   0.316   7.734   1.116 -1.6724  0.2133  1.1343
13033SOL     OW40292   0.921   0.618   1.550  0.0564  0.9719  0.8172
13033SOL    HW140293   0.928   0.615   1.454  1.4601 -0.0488  0.9147
13033SOL    HW240294   0.842   0.567   1.569  0.5560 -0.0781  0.2388
13034SOL     OW40295   3.305   0.073   2.296  0.1532  0.7865  0.3640
13034SOL    HW140296   3.337   0.148   2.346  0.0029  0.5813  0.7724
13034SOL    HW240297   3.222   0.103   2.259 -0.4737  0.4538  1.4631
13035SOL     OW40298   1.391   7.913   7.358  0.4620 -0.7924 -0.0105
13035SOL    HW140299   1.485   7.915   7.371  0.1469  1.8289  3.2582
13035SOL    HW240300   1.365   7.823   7.380  1.9984 -0.9283  1.4425
13036SOL     OW40301   8.421   2.947   4.232 -0.5961 -0.3176 -0.6235
13036SOL    HW140302   8.400   2.856   4.251 -2.2209  0.6167  2.6830
13036SOL    HW240303   8.513   2.956   4.258 -0.5890 -0.8637 -0.4507
13037SOL     OW40304   3.021   6.131   7.967 -0.4649  0.3011  0.4552
13037SOL    HW140305   3.071   6.072   7.910 -0.6404 -0.1571  0.7731
13037SOL    HW240306   3.012   6.211   7.915 -2.0595 -0.6630 -0.8591
13038SOL     OW40307   8.518   3.599   4.742  0.9594  0.0557 -0.1687
13038SOL    HW140308   8.456   3.565   4.677 -1.4738  3.0770  0.3232
13038SOL    HW240309   8.572   3.661   4.693  0.8097  0.4697  0.1833
13039SOL     OW40310   3.298   0.535   3.454  0.2874 -0.4774 -0.2083
13039SOL    HW140311   3.253   0.452   3.469 -0.8070  0.2837  0.9134
13039SOL    HW240312   3.232   0.602   3.470  1.0629  0.6292 -1.3837
13040SOL     OW40313   2.467   6.496   1.747  0.0209 -0.2267  0.2025
13040SOL    HW140314   2.381   6.505   1.789 -0.6480  0.6006 -1.2603
13040SOL    HW240315   2.493   6.586   1.727  0.7810 -0.5461 -0.2666
13041SOL     OW40316   4.597   7.192   6.063  0.0988  0.7108 -0.7517
13041SOL    HW140317   4.502   7.185   6.074  0.3081 -2.5886  0.1086
13041SOL    HW240318   4.611   7.178   5.969 -0.2241 -0.3819 -0.6529
13042SOL     OW40319   2.091   6.016   1.918 -0.4687  0.3598 -0.2951
13042SOL    HW140320   2.143   6.096   1.923  0.7829 -0.4959  0.7920
13042SOL    HW240321   2.144   5.955   1.866 -0.4259 -0.4706  0.6825
13043SOL     OW40322   4.113   5.255   5.333  0.9239  0.3083 -0.0301
13043SOL    HW140323   4.020   5.268   5.354  0.8048  1.6953 -1.3097
13043SOL    HW240324   4.123   5.159   5.330  0.3140  0.0147  3.2403
13044SOL     OW40325   3.980   3.680   3.654 -0.2257  0.4793  0.2247
13044SOL    HW140326   4.049   3.682   3.720  0.4596  0.0320 -0.4554
13044SOL    HW240327   3.909   3.630   3.695  1.0012 -1.6663 -0.1011
13045SOL     OW40328   0.832   7.068   3.829  0.2575 -0.1603  0.1440
13045SOL    HW140329   0.813   7.114   3.748  1.1981  0.3393  0.1936
13045SOL    HW240330   0.867   6.983   3.802 -0.1652 -0.3064  0.0432
13046SOL     OW40331   1.558   5.312   7.601 -0.1048  0.4084  0.4337
13046SOL    HW140332   1.534   5.268   7.683 -0.7184 -0.7227 -0.3358
13046SOL    HW240333   1.474   5.341   7.565  0.1912  1.1600  0.3286
13047SOL     OW40334   0.171   0.421   4.444 -0.2439 -0.3319  0.5348
13047SOL    HW140335   0.077   0.434   4.454 -0.5801 -0.8177 -1.5707
13047SOL    HW240336   0.210   0.478   4.510 -2.0048 -0.4820  1.7632
13048SOL     OW40337   3.893   2.119   1.152 -0.1391  0.0982  0.1197
13048SOL    HW140338   3.818   2.159   1.107  0.4967 -1.0638 -2.1655
13048SOL    HW240339   3.968   2.172   1.124  0.1501  0.0214  0.7406
13049SOL     OW40340   0.352   8.599   3.411  0.1138  0.1655  0.2252
13049SOL    HW140341   0.345   8.592   3.507  0.0250  0.5449  0.2464
13049SOL    HW240342   0.278   8.547   3.379 -1.1212  1.7208  0.4054
13050SOL     OW40343   3.202   6.327   2.018 -0.0008  0.0211 -0.9754
13050SOL    HW140344   3.268   6.390   2.046  0.8578 -1.7987  1.3891
13050SOL    HW240345   3.232   6.298   1.932  1.5661  0.2296 -0.5294
13051SOL     OW40346   2.945   4.504   3.811 -0.0614  0.5856  0.2868
13051SOL    HW140347   2.931   4.448   3.887 -0.8258  1.1457  0.5739
13051SOL    HW240348   2.927   4.448   3.735  1.8952 -0.3282  0.4427
13052SOL     OW40349   6.217   5.658   5.642  0.8229 -0.0927 -0.4207
13052SOL    HW140350   6.257   5.741   5.616 -0.1108  0.2354 -0.8365
13052SOL    HW240351   6.282   5.592   5.616  1.0291  0.4105 -1.2436
13053SOL     OW40352   2.293   7.218   2.497  0.8623 -0.1806 -0.5673
13053SOL    HW140353   2.314   7.125   2.494  2.6357  0.1915 -0.4597
13053SOL    HW240354   2.224   7.229   2.432 -0.2849 -1.7656  0.2978
13054SOL     OW40355   6.684   0.602   2.152  0.1023  0.0741 -0.9841
13054SOL    HW140356   6.741   0.528   2.130 -0.5553 -0.9212  0.4998
13054SOL    HW240357   6.611   0.563   2.199  0.0495  1.7389  0.4224
13055SOL     OW40358   4.298   6.422   1.110  0.5008 -0.3199  0.3675
13055SOL    HW140359   4.329   6.417   1.201 -0.0179  0.4616  0.5937
13055SOL    HW240360   4.268   6.333   1.091  0.0620 -0.3586  1.1630
13056SOL     OW40361   0.297   2.696   0.650 -0.0053  0.0401  0.1867
13056SOL    HW140362   0.379   2.743   0.668 -1.0510  0.8903  3.4752
13056SOL    HW240363   0.310   2.610   0.690 -0.1999 -0.4031 -0.6752
13057SOL     OW40364   1.386   7.252   1.570  0.2212 -0.4503 -0.2770
13057SOL    HW140365   1.313   7.210   1.525  0.3671 -2.8534  1.5278
13057SOL    HW240366   1.360   7.343   1.577 -1.2322 -0.6291 -2.2984
13058SOL     OW40367   4.126   0.739   2.522  0.1461  0.4500 -0.6362
13058SOL    HW140368   4.109   0.676   2.452  1.6497 -0.6254 -0.1091
13058SOL    HW240369   4.103   0.692   2.602 -0.5679  1.2910 -0.3438
13059SOL     OW40370   0.058   7.072   1.974 -0.3169  0.3412  0.0741
13059SOL    HW140371   0.077   7.020   1.895  2.3158  1.7089 -0.3200
13059SOL    HW240372   0.015   7.150   1.941 -1.4952 -0.1863  0.3200
13060SOL     OW40373   2.398   8.424   3.617  0.1191  0.2738  0.4767
13060SOL    HW140374   2.414   8.330   3.623  0.8991  0.2417 -1.3553
13060SOL    HW240375   2.413   8.445   3.525 -0.9396  2.0427  0.6550
13061SOL     OW40376   5.347   7.757   6.000  0.1554 -0.2228  0.7669
13061SOL    HW140377   5.442   7.764   6.007  0.2171  0.6172 -0.4605
13061SOL    HW240378   5.332   7.719   5.913 -0.6235 -1.1832  1.2969
13062SOL     OW40379   6.110   1.844   3.223  0.2966  0.3236 -0.5409
13062SOL    HW140380   6.167   1.919   3.206 -0.1145  1.3673  2.1210
13062SOL    HW240381   6.028   1.882   3.254 -1.7791 -1.1682 -3.6869
13063SOL     OW40382   5.072   4.597   0.122 -0.6205  0.8647 -0.0403
13063SOL    HW140383   5.122   4.525   0.084 -0.1148  1.1982 -0.0241
13063SOL    HW240384   5.007   4.619   0.056 -0.3411  0.8321 -0.3299
13064SOL     OW40385   6.896   3.609   1.002 -0.7057 -0.4180  0.5053
13064SOL    HW140386   6.964   3.654   0.952 -1.3753 -0.2906 -0.3016
13064SOL    HW240387   6.885   3.663   1.081  0.7785 -0.9486  1.1116
13065SOL     OW40388   4.432   1.029   5.461 -0.0245 -0.1606 -0.1541
13065SOL    HW140389   4.384   1.062   5.385  2.0674  1.9686 -0.6878
13065SOL    HW240390   4.403   1.084   5.534 -1.0402 -1.3165  0.3467
13066SOL     OW40391   5.329   3.002   2.981  0.2069 -0.3555  0.0833
13066SOL    HW140392   5.321   2.936   2.912  1.1258 -1.5158  1.0156
13066SOL    HW240393   5.319   2.952   3.062 -1.0349  0.9957  0.8098
13067SOL     OW40394   7.952   2.124   6.903  0.4323  0.3094  0.9165
13067SOL    HW140395   7.989   2.043   6.938 -0.3337  0.1556  1.4104
13067SOL    HW240396   7.960   2.186   6.975  0.8590  0.6297  0.5971
13068SOL     OW40397   8.436   1.023   7.341  0.5472 -0.6461  0.5643
13068SOL    HW140398   8.355   1.049   7.384  1.4645 -0.4500  2.2362
13068SOL    HW240399   8.464   0.944   7.387  0.3397 -1.8424 -1.2547
13069SOL     OW40400   6.909   7.531   1.084  0.4553  0.2464 -0.2083
13069SOL    HW140401   6.826   7.486   1.069  0.6065 -0.6370  1.4347
13069SOL    HW240402   6.914   7.542   1.179  1.6928  1.3089 -0.3757
13070SOL     OW40403   7.019   3.001   2.277  0.1088  0.2960 -0.3926
13070SOL    HW140404   7.053   3.085   2.247  0.4056 -0.7753 -3.4319
13070SOL    HW240405   6.932   2.995   2.237  0.0082 -0.7390 -0.0357
13071SOL     OW40406   1.009   0.161   0.842  0.1049 -0.0208  0.0934
13071SOL    HW140407   0.942   0.100   0.870  0.7468 -1.0749 -0.5922
13071SOL    HW240408   1.075   0.107   0.798  1.1475  1.0407  0.2772
13072SOL     OW40409   4.581   2.306   1.029 -0.6043  0.5609 -0.0454
13072SOL    HW140410   4.656   2.366   1.029 -0.0784 -0.0734 -0.6819
13072SOL    HW240411   4.610   2.231   1.080 -0.3868 -0.1698 -1.2049
13073SOL     OW40412   4.694   3.723   7.107  0.2171  0.0048  0.0595
13073SOL    HW140413   4.690   3.726   7.011  0.0790 -3.0754 -0.1133
13073SOL    HW240414   4.786   3.739   7.127  0.1681  1.1303 -0.5103
13074SOL     OW40415   3.366   6.688   0.751 -0.2413  0.1790 -0.2657
13074SOL    HW140416   3.295   6.624   0.755  0.4484 -0.8095 -2.3971
13074SOL    HW240417   3.443   6.640   0.781 -0.0202  0.5400 -0.2550
13075SOL     OW40418   3.990   0.392   5.280  0.2995  0.3209 -0.1618
13075SOL    HW140419   3.918   0.453   5.263 -0.4495 -0.3330  0.5208
13075SOL    HW240420   4.000   0.392   5.375  0.4489 -0.4224 -0.1662
13076SOL     OW40421   3.239   6.991   4.021  0.2022  0.1594  0.2798
13076SOL    HW140422   3.216   6.928   3.953 -1.4632  0.6929  0.3153
13076SOL    HW240423   3.294   6.941   4.082  1.3560 -0.4442 -1.1781
13077SOL     OW40424   7.363   4.501   4.329 -0.1964 -0.1286 -0.1733
13077SOL    HW140425   7.287   4.470   4.279 -0.2631  0.3752 -0.3897
13077SOL    HW240426   7.325   4.539   4.409 -0.3802  2.0833 -1.2302
13078SOL     OW40427   1.840   6.842   7.662 -0.6425 -0.4227 -0.0035
13078SOL    HW140428   1.924   6.799   7.678  2.3451  3.4703 -2.9231
13078SOL    HW240429   1.829   6.901   7.736 -0.6097 -0.7139  0.2345
13079SOL     OW40430   6.623   0.718   7.447  0.6629 -0.6120  0.2658
13079SOL    HW140431   6.604   0.688   7.358 -0.0924 -0.4605  0.3671
13079SOL    HW240432   6.562   0.790   7.461  0.8647 -0.5517  0.8679
13080SOL     OW40433   8.450   1.196   2.059 -0.5621  0.0977  0.5127
13080SOL    HW140434   8.411   1.119   2.018 -1.4861  1.0540 -0.4889
13080SOL    HW240435   8.430   1.186   2.152  0.9960 -1.7952  0.7005
13081SOL     OW40436   2.554   5.273   0.234 -0.3180 -0.5030 -0.8691
13081SOL    HW140437   2.491   5.207   0.263  2.6293 -2.1468  2.7081
13081SOL    HW240438   2.524   5.354   0.276 -0.8928 -0.8839 -0.5211
13082SOL     OW40439   3.207   0.733   7.827 -0.1501  0.0222 -0.4442
13082SOL    HW140440   3.146   0.772   7.890  0.3507 -1.4539  1.0418
13082SOL    HW240441   3.189   0.778   7.744 -2.2168  0.6541  0.2922
13083SOL     OW40442   5.560   7.988   3.187  0.2068  0.4916  0.0061
13083SOL    HW140443   5.533   8.080   3.189  1.0911  0.7403  0.7946
13083SOL    HW240444   5.512   7.948   3.259 -2.7522 -0.4459 -2.2749
13084SOL     OW40445   6.848   4.470   7.135 -0.1018  0.5162 -0.1910
13084SOL    HW140446   6.839   4.514   7.050 -0.6330 -0.4676 -0.6634
13084SOL    HW240447   6.937   4.492   7.163  2.3088 -3.4143 -3.5840
13085SOL     OW40448   5.877   2.684   6.211  0.4454  0.5312 -0.9274
13085SOL    HW140449   5.903   2.615   6.271 -0.8365  0.8268  0.0189
13085SOL    HW240450   5.959   2.718   6.176  1.1087 -1.3497 -1.3081
13086SOL     OW40451   0.821   0.328   2.771  0.2157  0.5176 -0.1768
13086SOL    HW140452   0.759   0.333   2.845 -2.3308  1.0502 -2.1886
13086SOL    HW240453   0.822   0.235   2.748  1.1190  0.3297  0.5754
13087SOL     OW40454   0.643   8.268   4.110  1.1240  0.1027  0.3305
13087SOL    HW140455   0.716   8.304   4.059  0.4182  0.5728 -0.3626
13087SOL    HW240456   0.602   8.344   4.150 -1.5157  0.4267 -2.6117
13088SOL     OW40457   2.119   2.587   7.508 -0.4836 -0.0884 -0.0376
13088SOL    HW140458   2.211   2.580   7.483 -0.3560 -0.1818  0.4448
13088SOL    HW240459   2.116   2.555   7.598 -0.6634  1.7334  0.6343
13089SOL     OW40460   8.460   0.048   4.890 -0.3853  0.0156  0.1589
13089SOL    HW140461   8.487   0.001   4.969  0.6392  1.2376  0.5696
13089SOL    HW240462   8.370   0.076   4.908 -0.0434  0.5890  1.0687
13090SOL     OW40463   0.201   6.340   5.619  0.3294 -0.3305 -0.2583
13090SOL    HW140464   0.277   6.389   5.651 -0.0889 -0.3487  0.7754
13090SOL    HW240465   0.126   6.380   5.663 -0.1347 -1.1184 -0.3239
13091SOL     OW40466   3.424   4.501   4.153 -0.3959 -0.2370 -0.6011
13091SOL    HW140467   3.421   4.432   4.087 -0.5404  0.0296 -0.8791
13091SOL    HW240468   3.334   4.508   4.185  0.1763 -2.4640  1.8614
13092SOL     OW40469   4.433   4.971   8.430  0.1297  0.1961  0.5607
13092SOL    HW140470   4.463   4.881   8.418 -0.0819  0.4121 -2.4722
13092SOL    HW240471   4.338   4.964   8.438  0.1019  0.1163  0.2076
13093SOL     OW40472   6.309   4.986   2.457  0.3435 -0.1813 -0.3085
13093SOL    HW140473   6.260   4.980   2.375  0.7059 -0.7302 -0.4937
13093SOL    HW240474   6.350   4.900   2.467  0.3746 -0.0952  0.4065
13094SOL     OW40475   5.878   3.207   2.303  0.0785 -1.0576 -0.2955
13094SOL    HW140476   5.881   3.302   2.294  1.5429 -1.2777 -4.6579
13094SOL    HW240477   5.959   3.185   2.351  2.1878 -0.1561 -3.1444
13095SOL     OW40478   7.999   3.240   0.985 -0.0727 -0.2882 -0.6260
13095SOL    HW140479   7.941   3.197   0.922 -0.5375  0.7946 -0.9614
13095SOL    HW240480   7.942   3.260   1.059 -0.0066  0.2725 -0.7215
13096SOL     OW40481   2.798   4.654   2.356  0.6209  0.4124  0.0180
13096SOL    HW140482   2.835   4.733   2.315 -0.2391  0.3845 -0.8479
13096SOL    HW240483   2.817   4.664   2.449  0.5038  1.6688 -0.0752
13097SOL     OW40484   3.380   2.585   8.088  0.2284 -0.5607  0.1690
13097SOL    HW140485   3.300   2.567   8.137  1.3572  1.6852  3.2150
13097SOL    HW240486   3.369   2.675   8.056  2.4148  0.9715  3.1481
13098SOL     OW40487   3.928   0.253   0.708  0.0841 -0.3017  0.0991
13098SOL    HW140488   3.939   0.204   0.789  3.3501 -1.8685 -1.0802
13098SOL    HW240489   3.887   0.191   0.648 -0.0270 -0.0109 -0.1282
13099SOL     OW40490   2.349   7.521   7.053  0.4206  0.0538  0.5642
13099SOL    HW140491   2.340   7.484   7.140  0.4351  0.6646  0.8345
13099SOL    HW240492   2.322   7.613   7.063  0.1963  0.0679 -0.1228
13100SOL     OW40493   0.612   1.502   2.085  0.9257 -0.0263 -0.8289
13100SOL    HW140494   0.522   1.508   2.052  0.9495 -0.1017 -0.9091
13100SOL    HW240495   0.632   1.409   2.083  0.6798 -0.1078  0.0782
13101SOL     OW40496   3.306   0.385   0.507 -0.0658  0.3039 -0.5614
13101SOL    HW140497   3.220   0.347   0.487  0.1601  0.0043 -0.9626
13101SOL    HW240498   3.338   0.417   0.424  0.2784  0.2834 -0.4360
13102SOL     OW40499   5.256   0.912   6.580 -0.3661 -0.3215 -0.2266
13102SOL    HW140500   5.310   0.837   6.553  0.9804  0.2623  0.7677
13102SOL    HW240501   5.307   0.989   6.556 -0.5468  0.2512  1.1369
13103SOL     OW40502   4.063   1.495   2.132 -0.2824 -0.7081 -0.0730
13103SOL    HW140503   4.014   1.503   2.051  1.1605 -0.2688 -0.9372
13103SOL    HW240504   4.147   1.458   2.106  0.5694  0.3414  1.0634
13104SOL     OW40505   3.548   8.018   8.297  0.0351 -0.3603 -0.0580
13104SOL    HW140506   3.593   8.005   8.380  0.4766 -0.4728 -0.3094
13104SOL    HW240507   3.576   7.943   8.243 -0.9432 -0.7771 -0.0120
13105SOL     OW40508   0.981   5.064   0.110  0.4253 -0.3789  0.4191
13105SOL    HW140509   0.998   4.970   0.108 -0.3013 -0.5121  0.3695
13105SOL    HW240510   0.900   5.075   0.062  1.9125  0.6031 -2.0573
13106SOL     OW40511   8.078   2.267   1.034 -0.3183  0.1932 -0.1022
13106SOL    HW140512   7.993   2.223   1.035  0.5533 -1.5978 -1.1501
13106SOL    HW240513   8.136   2.208   1.082  0.8555  0.2074 -1.4373
13107SOL     OW40514   4.837   8.237   1.679 -0.6439  0.4714  0.3687
13107SOL    HW140515   4.838   8.280   1.765  2.9173  1.1955  0.1497
13107SOL    HW240516   4.909   8.174   1.684 -1.6887 -0.9156 -1.4496
13108SOL     OW40517   0.281   2.043   2.473 -0.1789  0.0627  0.2159
13108SOL    HW140518   0.245   1.996   2.548  1.9816  1.6234  2.3742
13108SOL    HW240519   0.213   2.105   2.449  0.5149  2.5522  3.8254
13109SOL     OW40520   5.343   0.945   5.437  0.1410 -0.2272 -0.0595
13109SOL    HW140521   5.338   0.849   5.444 -2.2471 -0.1821 -0.2392
13109SOL    HW240522   5.362   0.974   5.526 -1.3668 -0.8238  0.4970
13110SOL     OW40523   6.487   3.341   6.869  0.3552  0.3039  0.1840
13110SOL    HW140524   6.432   3.359   6.792  2.2405  0.2480 -1.2480
13110SOL    HW240525   6.495   3.245   6.870 -1.5367  0.1123  1.8758
13111SOL     OW40526   6.607   0.895   8.168  0.0056  0.0027 -0.0509
13111SOL    HW140527   6.516   0.919   8.185 -0.1651  0.3437 -1.3400
13111SOL    HW240528   6.620   0.912   8.075  1.0332 -1.2153 -0.1719
13112SOL     OW40529   4.771   7.822   8.193  0.0097  0.0235 -0.1087
13112SOL    HW140530   4.825   7.793   8.120 -0.0042  0.2840 -0.2246
13112SOL    HW240531   4.830   7.824   8.268 -0.3878 -2.0604  0.3206
13113SOL     OW40532   7.045   4.435   1.487  0.1517  0.2049  0.3985
13113SOL    HW140533   7.028   4.448   1.394 -0.2036  0.0113  0.4338
13113SOL    HW240534   7.120   4.491   1.506  1.3849 -1.1352 -0.4026
13114SOL     OW40535   2.131   7.802   7.891  0.8656  0.5438 -1.2032
13114SOL    HW140536   2.124   7.714   7.855  1.5670 -0.1050  0.1676
13114SOL    HW240537   2.191   7.847   7.833 -0.5162  0.5639 -2.6816
13115SOL     OW40538   8.276   0.737   6.101 -0.5650 -0.5396 -0.0285
13115SOL    HW140539   8.266   0.678   6.027 -0.3080 -0.3282 -0.2319
13115SOL    HW240540   8.248   0.823   6.068  1.3123 -0.0334 -0.4573
13116SOL     OW40541   7.837   7.424   2.577  0.3892  0.3918 -0.2855
13116SOL    HW140542   7.813   7.469   2.658 -2.2021  0.5567 -1.0834
13116SOL    HW240543   7.824   7.332   2.596 -1.3442  0.5022 -0.8202
13117SOL     OW40544   4.670   8.180   6.390  0.3461 -0.1437  0.2056
13117SOL    HW140545   4.642   8.107   6.335  1.5470 -0.8683  0.5166
13117SOL    HW240546   4.700   8.246   6.328  1.9663 -1.0649 -0.0703
13118SOL     OW40547   2.772   6.759   4.300  0.4587  0.2718 -0.1651
13118SOL    HW140548   2.791   6.777   4.391 -0.8329  1.0311 -0.0262
13118SOL    HW240549   2.858   6.739   4.261  0.9552 -0.6552  1.3140
13119SOL     OW40550   7.103   3.649   7.511 -0.7681 -0.0758 -0.3187
13119SOL    HW140551   7.154   3.689   7.440 -0.3235  2.0331  1.0727
13119SOL    HW240552   7.034   3.600   7.467  0.5539 -0.3277 -2.2143
13120SOL     OW40553   0.257   4.230   8.026  0.0275  0.4504 -0.3372
13120SOL    HW140554   0.295   4.203   8.110  1.4928  0.0010 -1.1040
13120SOL    HW240555   0.288   4.320   8.014 -0.7848  0.7753 -0.0788
13121SOL     OW40556   3.759   5.863   5.973  0.2299  0.2268 -0.4079
13121SOL    HW140557   3.798   5.948   5.997  0.0217  0.1358  0.2738
13121SOL    HW240558   3.809   5.835   5.896  0.6694  0.7116 -0.3071
13122SOL     OW40559   1.266   3.706   5.495  0.3865  0.4576 -0.3829
13122SOL    HW140560   1.202   3.635   5.506  0.2479  0.7636  0.9048
13122SOL    HW240561   1.213   3.786   5.496  0.5671  0.6184 -1.6007
13123SOL     OW40562   2.017   0.130   1.325 -0.4087 -0.2654  0.3952
13123SOL    HW140563   1.993   0.185   1.400  0.0675  0.3376  0.1163
13123SOL    HW240564   1.962   0.052   1.334 -0.6973  0.0076  1.1079
13124SOL     OW40565   8.111   5.210   2.982 -0.1741  0.5255  0.2029
13124SOL    HW140566   8.104   5.305   2.983  0.3645  0.6260 -1.9103
13124SOL    HW240567   8.053   5.181   3.053 -1.3093  2.3711  0.0859
13125SOL     OW40568   6.164   1.479   3.578 -0.1099  0.7810 -0.2581
13125SOL    HW140569   6.198   1.410   3.521 -0.7065  0.4778 -0.2513
13125SOL    HW240570   6.149   1.553   3.520 -0.5465  0.5309 -0.4719
13126SOL     OW40571   2.999   5.455   0.086 -0.1988 -0.5814 -0.7572
13126SOL    HW140572   2.992   5.382   0.146  0.7162 -1.6727 -1.9282
13126SOL    HW240573   2.909   5.483   0.071 -0.4907 -0.8547  0.4136
13127SOL     OW40574   2.442   0.283   8.185 -0.0726  0.6910  0.4127
13127SOL    HW140575   2.527   0.274   8.229  0.5112 -1.5274 -0.9877
13127SOL    HW240576   2.457   0.349   8.117  0.3981  0.6652  0.4878
13128SOL     OW40577   3.084   0.602   4.792 -0.2326  0.1719  0.0274
13128SOL    HW140578   3.104   0.517   4.832 -0.5371  0.1245  0.0769
13128SOL    HW240579   3.123   0.666   4.852 -0.2499  0.0805  0.1371
13129SOL     OW40580   5.587   5.615   4.097 -0.0382  0.1588  0.4670
13129SOL    HW140581   5.567   5.522   4.094  1.5150 -0.2825  1.8415
13129SOL    HW240582   5.562   5.642   4.186 -1.0368  1.2025 -0.1129
13130SOL     OW40583   7.240   5.562   2.896  0.2686  0.4179  0.1059
13130SOL    HW140584   7.232   5.511   2.815  0.3792  0.1961  0.2322
13130SOL    HW240585   7.150   5.581   2.922  0.2354  0.5490 -0.1076
13131SOL     OW40586   1.015   1.288   5.365  0.4790 -0.1132 -0.3654
13131SOL    HW140587   0.958   1.212   5.358 -0.9630  0.9767 -0.8136
13131SOL    HW240588   0.970   1.346   5.426  0.3348  1.4194 -1.8744
13132SOL     OW40589   5.578   8.362   6.366 -0.0734  0.0819  0.0032
13132SOL    HW140590   5.517   8.292   6.389 -1.5694  1.0964 -0.7530
13132SOL    HW240591   5.658   8.340   6.414 -1.0273 -1.2617  1.0690
13133SOL     OW40592   5.412   3.939   4.446  0.0206 -0.4328  0.1105
13133SOL    HW140593   5.369   3.885   4.379  0.5630 -0.7810  0.0404
13133SOL    HW240594   5.342   3.996   4.478 -0.3480 -0.5544 -0.4492
13134SOL     OW40595   8.188   7.086   0.015 -0.1079 -0.1782  0.1030
13134SOL    HW140596   8.186   7.181   0.029 -1.2724 -0.1327 -0.2923
13134SOL    HW240597   8.127   7.051   0.080  0.4247 -0.6729  0.3416
13135SOL     OW40598   5.547   7.432   4.209 -0.7578 -0.4418 -0.3225
13135SOL    HW140599   5.595   7.495   4.155  0.2771 -0.5129  0.4911
13135SOL    HW240600   5.455   7.459   4.202 -0.3744  0.9386 -0.2682
13136SOL     OW40601   6.736   0.263   3.010 -0.3266  0.1256  0.2140
13136SOL    HW140602   6.780   0.304   2.936  0.8631 -0.6203  0.4878
13136SOL    HW240603   6.765   0.313   3.087 -2.0019  1.2647  0.1648
13137SOL     OW40604   3.928   4.095   1.848 -0.5735 -0.9387 -0.0776
13137SOL    HW140605   3.929   4.173   1.792 -2.3659 -0.1497  0.8806
13137SOL    HW240606   3.958   4.024   1.792  0.3943  0.3149 -1.1908
13138SOL     OW40607   7.727   4.642   4.246 -0.3601  0.4938  0.3828
13138SOL    HW140608   7.785   4.679   4.180 -1.2413 -0.1256 -0.7736
13138SOL    HW240609   7.708   4.553   4.215  0.6716 -0.5002  2.4189
13139SOL     OW40610   1.565   6.756   7.685  0.0534 -0.2655  0.2095
13139SOL    HW140611   1.658   6.759   7.665  0.1310  3.4761  0.5055
13139SOL    HW240612   1.522   6.774   7.602 -0.1488  2.2910  0.7971
13140SOL     OW40613   3.471   0.424   3.277 -0.6227  0.0374  0.4954
13140SOL    HW140614   3.407   0.475   3.326 -2.1284  0.2373 -1.5291
13140SOL    HW240615   3.420   0.385   3.205  1.2450 -1.0975 -0.2820
13141SOL     OW40616   3.255   4.434   3.296  0.0443  0.3280 -0.1969
13141SOL    HW140617   3.336   4.482   3.279 -1.7790  4.0850  0.7632
13141SOL    HW240618   3.202   4.449   3.218 -0.6425 -0.0822  0.1860
13142SOL     OW40619   0.394   1.411   7.932  0.3380 -0.2955  0.0434
13142SOL    HW140620   0.440   1.345   7.984  0.5520 -0.6592 -0.5815
13142SOL    HW240621   0.341   1.460   7.995  2.1197  0.6158  0.9002
13143SOL     OW40622   5.053   4.929   6.427 -0.2292  0.6200  0.4728
13143SOL    HW140623   5.040   4.834   6.418 -3.5680  1.1752 -2.2902
13143SOL    HW240624   4.997   4.953   6.501  1.9922  0.3680  2.3776
13144SOL     OW40625   7.758   0.392   0.291 -0.8795  0.3255  0.2021
13144SOL    HW140626   7.850   0.366   0.291 -0.6843  0.9526 -1.0368
13144SOL    HW240627   7.716   0.330   0.351  0.4932  0.6261  1.5438
13145SOL     OW40628   8.025   7.475   0.678  0.1214  0.3732 -0.0080
13145SOL    HW140629   8.014   7.562   0.716 -2.7485 -0.0794  0.4422
13145SOL    HW240630   8.072   7.426   0.745  0.1330  1.0999  0.5264
13146SOL     OW40631   3.008   4.583   5.749 -0.0047 -0.4811 -0.3974
13146SOL    HW140632   2.951   4.654   5.777 -1.8666 -0.9438 -2.7355
13146SOL    HW240633   2.968   4.504   5.786 -0.4187 -0.7224 -1.3383
13147SOL     OW40634   2.800   2.057   5.899  0.6367  0.1536 -0.0782
13147SOL    HW140635   2.715   2.102   5.906  0.5086 -0.2180  1.0148
13147SOL    HW240636   2.789   1.979   5.953  1.4688 -0.2291 -0.4603
13148SOL     OW40637   4.197   3.837   4.178  0.0059  0.2163  0.6763
13148SOL    HW140638   4.250   3.809   4.103  1.9573  0.5479  1.8636
13148SOL    HW240639   4.131   3.768   4.188 -0.2000  0.0780 -1.2073
13149SOL     OW40640   7.589   6.738   2.560 -0.1654  0.5990 -0.1402
13149SOL    HW140641   7.552   6.728   2.473  3.0051 -1.1533 -1.4157
13149SOL    HW240642   7.540   6.676   2.614 -0.0032 -0.7041 -1.4462
13150SOL     OW40643   1.553   4.605   3.687 -0.3918 -0.0467  0.1313
13150SOL    HW140644   1.626   4.656   3.652  0.6213 -1.2272  0.4441
13150SOL    HW240645   1.551   4.626   3.780 -0.0702 -0.4740  0.2328
13151SOL     OW40646   2.274   7.171   3.735 -0.4593 -0.0808  0.2318
13151SOL    HW140647   2.196   7.151   3.787 -1.0923  1.1947 -0.1824
13151SOL    HW240648   2.340   7.108   3.764 -1.7609 -1.4553  0.3008
13152SOL     OW40649   2.432   7.995   4.873 -0.3488 -0.4176  0.7855
13152SOL    HW140650   2.525   7.976   4.890 -0.2614  0.7627  1.7456
13152SOL    HW240651   2.433   8.041   4.790 -0.1626 -1.0495  0.4260
13153SOL     OW40652   0.658   4.518   6.131 -0.6694  0.0054  0.5733
13153SOL    HW140653   0.741   4.551   6.166 -0.2636 -0.0151 -0.3643
13153SOL    HW240654   0.683   4.449   6.070 -1.4719 -1.5252  1.8897
13154SOL     OW40655   7.632   6.833   4.680 -0.4101  0.1379  0.7250
13154SOL    HW140656   7.618   6.738   4.685 -0.8476  0.1513 -0.0952
13154SOL    HW240657   7.556   6.871   4.723 -0.2764  0.1170  0.9789
13155SOL     OW40658   2.259   0.745   0.723 -0.3081  0.4064 -0.3403
13155SOL    HW140659   2.270   0.657   0.759  0.4702  0.7769  0.3516
13155SOL    HW240660   2.232   0.730   0.632 -1.3097 -0.5401  0.0874
13156SOL     OW40661   0.180   2.579   8.037 -0.5846  0.0773 -0.0392
13156SOL    HW140662   0.131   2.497   8.027  2.4332 -1.8793 -0.1704
13156SOL    HW240663   0.215   2.575   8.126  0.7341  0.4805 -0.5148
13157SOL     OW40664   3.491   3.054   8.295  0.1238  0.1783 -0.0879
13157SOL    HW140665   3.554   3.011   8.238 -1.2846  0.3676 -1.8896
13157SOL    HW240666   3.533   3.137   8.320  1.4698 -0.6869  0.6342
13158SOL     OW40667   2.681   7.271   7.875 -0.4299 -0.0225 -0.7467
13158SOL    HW140668   2.726   7.340   7.827  0.0232 -0.0407 -0.3582
13158SOL    HW240669   2.644   7.214   7.807  0.1441 -0.0108 -1.0719
13159SOL     OW40670   1.638   0.840   3.530  0.4862 -0.2198  0.2043
13159SOL    HW140671   1.582   0.904   3.486 -0.8042 -3.2818 -3.0520
13159SOL    HW240672   1.717   0.889   3.552 -0.8479  2.7444 -1.0071
13160SOL     OW40673   6.524   5.725   8.065 -0.2526 -0.2693  0.1831
13160SOL    HW140674   6.487   5.718   8.153  0.1049  0.4327  0.4022
13160SOL    HW240675   6.456   5.767   8.013  1.3893  4.7921  1.4868
13161SOL     OW40676   1.987   7.525   4.336 -0.0549 -0.2755 -0.1763
13161SOL    HW140677   2.077   7.505   4.307  0.3262  1.9667 -0.7431
13161SOL    HW240678   1.984   7.495   4.426  0.8331 -1.6035 -0.5596
13162SOL     OW40679   7.539   3.187   5.490  0.3473  0.4657 -0.5859
13162SOL    HW140680   7.449   3.161   5.469  0.7402  0.5745 -2.6515
13162SOL    HW240681   7.591   3.108   5.473  0.9323  1.1228 -2.0417
13163SOL     OW40682   0.802   5.747   2.535  0.3135 -0.2807  0.0128
13163SOL    HW140683   0.894   5.756   2.560 -0.1133  0.9900  1.2564
13163SOL    HW240684   0.753   5.781   2.610 -1.1192  1.9702 -1.7902
13164SOL     OW40685   7.864   3.280   1.222  0.2824 -0.1664  0.1992
13164SOL    HW140686   7.870   3.344   1.292 -0.9367  0.7199 -0.4581
13164SOL    HW240687   7.872   3.195   1.266 -0.7476  0.3520  1.4651
13165SOL     OW40688   6.000   2.732   2.339  0.3591  0.0953  0.5142
13165SOL    HW140689   6.070   2.701   2.281 -0.9467 -0.4159 -0.8552
13165SOL    HW240690   5.922   2.734   2.283 -0.8214  0.2181  2.1114
13166SOL     OW40691   7.302   6.128   3.054 -0.7957  0.3416 -0.1807
13166SOL    HW140692   7.271   6.041   3.078  2.7347 -0.7835  0.7666
13166SOL    HW240693   7.366   6.113   2.985  1.2795  1.9354  1.2871
13167SOL     OW40694   0.485   4.371   6.481  0.4682  0.5001 -0.6612
13167SOL    HW140695   0.535   4.298   6.517 -1.3944 -0.5711 -0.1297
13167SOL    HW240696   0.402   4.369   6.528 -0.6336  1.3492 -2.4711
13168SOL     OW40697   1.852   4.676   5.500  0.2505 -0.8556 -0.4661
13168SOL    HW140698   1.911   4.713   5.434  0.0821 -1.2873 -0.8693
13168SOL    HW240699   1.892   4.699   5.584  2.4107 -3.3217 -0.7060
13169SOL     OW40700   4.160   8.555   7.485  0.0455  0.0274 -0.0873
13169SOL    HW140701   4.222   8.551   7.412  0.3179  1.1389  0.0606
13169SOL    HW240702   4.204   8.509   7.557  0.3640  0.1344 -0.2134
13170SOL     OW40703   2.482   3.059   4.458  0.4553 -0.4544  0.5421
13170SOL    HW140704   2.394   3.073   4.491 -0.5536 -1.0595 -1.6647
13170SOL    HW240705   2.487   2.965   4.440  2.1374 -0.7197  2.0363
13171SOL     OW40706   5.681   7.122   0.887 -0.1716  0.5325  0.2479
13171SOL    HW140707   5.688   7.068   0.966  2.4972  0.7071  0.2430
13171SOL    HW240708   5.685   7.212   0.919  0.7709  0.6062 -0.0487
13172SOL     OW40709   1.773   0.905   5.248  0.0296 -0.2858 -0.0181
13172SOL    HW140710   1.747   0.815   5.267 -1.9006  0.4315  1.0711
13172SOL    HW240711   1.851   0.919   5.301  1.5276 -1.8706 -1.7003
13173SOL     OW40712   0.785   3.641   2.772 -0.2865  0.2557 -0.2698
13173SOL    HW140713   0.703   3.688   2.787 -0.3922  0.2001 -0.6463
13173SOL    HW240714   0.849   3.709   2.751 -0.6464  0.1933 -1.7141
13174SOL     OW40715   2.160   1.893   7.546 -0.1371 -0.1765  0.0413
13174SOL    HW140716   2.092   1.912   7.481  0.0121 -0.4361 -0.1937
13174SOL    HW240717   2.214   1.825   7.505  0.0923 -0.1798  0.3453
13175SOL     OW40718   7.579   3.134   4.874 -0.0397  0.2959 -0.3830
13175SOL    HW140719   7.561   3.187   4.795  1.0235  2.1933  0.5725
13175SOL    HW240720   7.494   3.127   4.918 -0.4106  0.2501 -1.0872
13176SOL     OW40721   4.373   8.220   8.435 -0.7808 -0.1894 -0.5068
13176SOL    HW140722   4.424   8.139   8.434 -1.6591 -0.7519 -0.5324
13176SOL    HW240723   4.287   8.195   8.401 -1.3170  0.5819  0.2499
13177SOL     OW40724   0.375   4.522   3.885 -0.0129 -0.0231 -0.3667
13177SOL    HW140725   0.372   4.594   3.948  1.2245  0.3118 -0.6651
13177SOL    HW240726   0.463   4.486   3.893  0.0717 -0.1640 -1.6954
13178SOL     OW40727   2.127   6.366   1.522  0.1406  0.2166  0.1114
13178SOL    HW140728   2.171   6.406   1.447  0.1977 -0.0586  0.0000
13178SOL    HW240729   2.036   6.356   1.494  0.1416  0.2000  0.1149
13179SOL     OW40730   0.026   3.032   2.985 -0.2658  0.5478  0.5778
13179SOL    HW140731  -0.016   3.061   3.066 -0.8124 -0.6218  0.7302
13179SOL    HW240732  -0.023   3.076   2.915  0.0696  1.3918  0.8678
13180SOL     OW40733   5.187   1.974   1.287  0.0886  0.0907  0.0843
13180SOL    HW140734   5.133   2.008   1.217 -0.7306 -0.3748  0.4805
13180SOL    HW240735   5.134   1.905   1.328  0.0052  1.2065  1.9773
13181SOL     OW40736   3.142   0.850   3.234  0.4957 -0.4241  0.2019
13181SOL    HW140737   3.051   0.825   3.251  0.9837 -1.5105  1.3433
13181SOL    HW240738   3.136   0.918   3.166 -1.0684 -1.5883 -0.8985
13182SOL     OW40739   3.206   1.810   2.728  0.0381 -0.2075 -0.3321
13182SOL    HW140740   3.153   1.783   2.802 -0.3874 -0.0129 -0.5634
13182SOL    HW240741   3.261   1.881   2.762  0.8517 -1.0574  0.1605
13183SOL     OW40742   6.087   3.399   3.126  0.6510 -0.2741  0.4490
13183SOL    HW140743   6.133   3.481   3.111 -1.7936  1.2871  0.9981
13183SOL    HW240744   6.028   3.389   3.052 -0.9537 -0.1253  1.6472
13184SOL     OW40745   2.199   1.930   3.548 -0.3323 -0.1155 -0.0702
13184SOL    HW140746   2.148   1.885   3.480 -1.3345 -2.2803  1.9810
13184SOL    HW240747   2.134   1.966   3.608  0.5157  2.4677 -0.5484
13185SOL     OW40748   2.097   4.795   3.958 -0.1167 -0.4024 -0.1201
13185SOL    HW140749   2.038   4.853   3.909 -1.1504  0.3632  1.9022
13185SOL    HW240750   2.068   4.707   3.934 -0.0020 -0.0805 -1.5347
13186SOL     OW40751   3.248   6.665   2.673  0.1749 -0.0989  0.2608
13186SOL    HW140752   3.200   6.745   2.696 -2.4279 -1.2643 -0.6399
13186SOL    HW240753   3.275   6.679   2.582 -1.4654 -0.6889 -0.3574
13187SOL     OW40754   3.683   5.523   7.358  0.1709 -0.0151 -0.1077
13187SOL    HW140755   3.672   5.451   7.420 -1.5648 -1.0770 -1.5492
13187SOL    HW240756   3.745   5.489   7.294 -0.1851  0.0003 -0.4619
13188SOL     OW40757   0.013   2.702   3.370 -0.1901  0.3063 -0.8797
13188SOL    HW140758  -0.017   2.645   3.300 -1.9319 -0.3328  0.3071
13188SOL    HW240759   0.040   2.643   3.440  0.0311  0.9302 -0.4233
13189SOL     OW40760   3.296   3.896   3.721 -0.7206  0.1239 -0.0267
13189SOL    HW140761   3.280   3.819   3.666  0.8440  0.3116 -0.8028
13189SOL    HW240762   3.385   3.884   3.753 -1.6229 -0.0457  2.6624
13190SOL     OW40763   3.270   4.762   8.501 -0.0425 -0.3346 -0.0066
13190SOL    HW140764   3.341   4.770   8.438 -1.4461  1.0779 -1.4865
13190SOL    HW240765   3.220   4.843   8.493 -1.5276 -1.0450  1.3711
13191SOL     OW40766   4.895   7.117   8.266  0.1214  0.2043 -0.4023
13191SOL    HW140767   4.976   7.097   8.219  0.4395 -1.2861  0.6821
13191SOL    HW240768   4.924   7.163   8.345 -0.2346  0.9410 -0.6893
13192SOL     OW40769   8.088   7.966   7.179 -0.1363 -0.7540 -1.0195
13192SOL    HW140770   8.005   7.967   7.130  0.3950  2.0603 -2.0362
13192SOL    HW240771   8.145   8.025   7.130  1.5278 -0.3669  1.2311
13193SOL     OW40772   3.541   0.975   2.274 -0.1377 -0.6886 -0.1806
13193SOL    HW140773   3.475   0.941   2.334 -0.6351  2.1993  1.0784
13193SOL    HW240774   3.624   0.962   2.319 -0.2269 -1.0200 -0.1105
13194SOL     OW40775   7.616   2.419   4.541 -0.0719  0.1426 -0.1728
13194SOL    HW140776   7.660   2.497   4.507 -0.2077 -0.4331 -1.7388
13194SOL    HW240777   7.635   2.420   4.635  1.8893  0.8090 -0.5307
13195SOL     OW40778   5.059   7.529   3.363 -0.6450  0.6092 -0.6194
13195SOL    HW140779   5.023   7.601   3.415 -0.2840 -0.4396  1.1690
13195SOL    HW240780   5.152   7.548   3.357 -0.6803  0.7091 -0.8735
13196SOL     OW40781   3.881   7.917   5.773 -0.0353  0.4402 -0.3059
13196SOL    HW140782   3.836   7.998   5.795  1.7219  1.6232 -0.8689
13196SOL    HW240783   3.960   7.918   5.827 -0.2082 -1.1482  0.0245
13197SOL     OW40784   5.920   0.499   2.098  0.0989  0.3106  0.0987
13197SOL    HW140785   6.006   0.540   2.110 -0.8241  1.9936  1.4254
13197SOL    HW240786   5.869   0.564   2.051 -0.3272 -0.9083 -1.1983
13198SOL     OW40787   1.113   7.466   6.483 -0.1888  0.1245  0.2737
13198SOL    HW140788   1.134   7.455   6.390  2.2426 -0.9206  0.8647
13198SOL    HW240789   1.099   7.560   6.494 -0.3763  0.2713 -1.1270
13199SOL     OW40790   0.987   5.670   3.500  0.3812  0.5128  0.0949
13199SOL    HW140791   1.010   5.666   3.593  2.6141  1.1989 -0.3696
13199SOL    HW240792   0.920   5.602   3.490  0.5751 -0.0520  2.0648
13200SOL     OW40793   8.180   5.840   6.369 -0.6765 -0.8874  0.4700
13200SOL    HW140794   8.107   5.870   6.315  0.2171 -1.4721 -1.1217
13200SOL    HW240795   8.244   5.911   6.365 -0.0667 -1.4629 -0.3476
13201SOL     OW40796   3.541   8.396   4.545  0.1272 -0.0696 -0.0072
13201SOL    HW140797   3.574   8.311   4.515  1.0271  0.7882 -1.5459
13201SOL    HW240798   3.514   8.441   4.466 -0.5652  1.0207  0.8145
13202SOL     OW40799   7.590   8.416   2.275  0.4088  0.1400 -0.2919
13202SOL    HW140800   7.504   8.427   2.314  0.3982 -0.3743 -0.1677
13202SOL    HW240801   7.646   8.388   2.347  0.2695 -1.3673 -0.7221
13203SOL     OW40802   7.872   3.754   3.084  0.4356 -0.1676  0.7361
13203SOL    HW140803   7.901   3.670   3.120  2.0424  0.2209  0.4388
13203SOL    HW240804   7.870   3.813   3.160 -0.9171 -0.5136  0.9842
13204SOL     OW40805   2.507   0.434   0.834  0.4045  0.1850  0.1817
13204SOL    HW140806   2.469   0.457   0.919  0.8119  0.7454  0.2246
13204SOL    HW240807   2.436   0.447   0.772  0.8064  2.4716  0.0891
13205SOL     OW40808   6.874   3.275   3.202  0.3378 -0.3278 -0.3691
13205SOL    HW140809   6.796   3.252   3.152  1.8393 -1.2673 -2.4690
13205SOL    HW240810   6.928   3.196   3.198  1.4253  0.3087  0.9751
13206SOL     OW40811   3.809   4.771   4.253  0.8439  0.2370 -0.2260
13206SOL    HW140812   3.886   4.715   4.246  1.3932  0.8853  0.4685
13206SOL    HW240813   3.812   4.805   4.342 -0.0756  0.5323 -0.2919
13207SOL     OW40814   2.875   5.154   5.534 -0.2413  0.0222  0.0780
13207SOL    HW140815   2.819   5.208   5.589 -0.7646  0.8321 -1.1932
13207SOL    HW240816   2.869   5.194   5.447  0.9104 -0.9358 -0.4772
13208SOL     OW40817   6.271   1.545   0.127 -0.2527 -0.5826 -0.9256
13208SOL    HW140818   6.289   1.567   0.218 -0.2668  0.2333 -1.1146
13208SOL    HW240819   6.356   1.552   0.083  0.0536 -2.4122 -0.7144
13209SOL     OW40820   4.306   8.392   3.642 -0.6246 -0.5185 -0.3657
13209SOL    HW140821   4.319   8.405   3.736 -0.9414 -1.2816 -0.2062
13209SOL    HW240822   4.236   8.453   3.618 -0.5172 -0.2969 -0.1155
13210SOL     OW40823   1.847   4.220   5.290  0.2780  0.0284 -0.3626
13210SOL    HW140824   1.772   4.260   5.335  0.4277 -0.7598  0.6309
13210SOL    HW240825   1.910   4.292   5.282 -0.7365  0.8096 -1.6106
13211SOL     OW40826   8.114   5.493   3.030 -0.4643  0.2061 -0.4277
13211SOL    HW140827   8.129   5.588   3.033  1.6089 -0.0472 -1.2403
13211SOL    HW240828   8.185   5.456   3.081 -1.1411 -0.9428 -0.2928
13212SOL     OW40829   4.049   2.880   2.326 -0.5112  0.1462  0.0127
13212SOL    HW140830   4.013   2.913   2.408 -1.7090 -1.6537  0.2732
13212SOL    HW240831   4.024   2.788   2.324 -0.1313  0.0324 -2.1766
13213SOL     OW40832   0.147   1.545   1.525 -0.1419 -0.2178  0.0147
13213SOL    HW140833   0.171   1.603   1.453 -0.7011  0.3826  0.3016
13213SOL    HW240834   0.187   1.461   1.502 -1.6765 -0.5011 -1.8260
13214SOL     OW40835   8.483   8.068   3.044 -0.2072  0.3167 -0.1681
13214SOL    HW140836   8.422   8.061   3.117  0.4000  0.3519  0.3493
13214SOL    HW240837   8.458   7.997   2.985 -0.3273 -0.0789  0.3526
13215SOL     OW40838   3.924   0.806   8.590 -0.3077 -0.2135  0.0249
13215SOL    HW140839   3.950   0.728   8.639  0.4962 -0.2882 -0.5006
13215SOL    HW240840   3.884   0.863   8.656  1.8517  0.2129  1.0751
13216SOL     OW40841   7.820   1.015   8.541  0.2650  0.0229 -0.1104
13216SOL    HW140842   7.831   1.064   8.460  2.3260  0.0383  0.1298
13216SOL    HW240843   7.900   1.032   8.591  0.4057 -2.3915  0.6329
13217SOL     OW40844   3.119   3.052   6.493 -0.3407  0.1496 -0.4835
13217SOL    HW140845   3.115   3.120   6.426  0.9172 -1.3466 -2.2174
13217SOL    HW240846   3.132   3.098   6.575 -2.0728  2.0817 -1.2218
13218SOL     OW40847   2.115   4.016   8.372 -0.1511  0.3399  0.0509
13218SOL    HW140848   2.077   4.033   8.458  1.1623 -0.8371  0.9145
13218SOL    HW240849   2.187   4.080   8.365 -0.5334  0.7289 -0.3771
13219SOL     OW40850   1.325   0.570   1.738 -0.1438 -0.0729 -0.5569
13219SOL    HW140851   1.234   0.552   1.763  0.0358 -0.9568 -0.5322
13219SOL    HW240852   1.339   0.661   1.765 -1.1580  0.2179 -0.9708
13220SOL     OW40853   1.970   1.804   8.426 -0.1684 -0.3813 -0.0963
13220SOL    HW140854   1.920   1.885   8.426  1.4524  0.6504 -0.6912
13220SOL    HW240855   1.933   1.753   8.353 -0.3943  0.3348 -0.4922
13221SOL     OW40856   3.549   3.972   3.342 -0.2009 -0.0143 -0.4285
13221SOL    HW140857   3.572   3.974   3.249  1.2300  1.1865 -0.0760
13221SOL    HW240858   3.477   4.035   3.349 -0.9958 -0.8366 -0.8533
13222SOL     OW40859   3.308   6.745   4.213  1.1438 -0.0475 -0.1364
13222SOL    HW140860   3.272   6.670   4.167 -0.2772  0.1700  0.5689
13222SOL    HW240861   3.402   6.729   4.215  0.9532 -1.3570 -0.7857
13223SOL     OW40862   7.482   4.062   2.536  0.2866  0.7638 -0.3431
13223SOL    HW140863   7.401   4.091   2.579  0.4879 -0.2200  0.7421
13223SOL    HW240864   7.528   4.011   2.603  0.3235 -1.3724 -1.9015
13224SOL     OW40865   1.934   3.116   5.059  0.3495 -0.1547  0.0791
13224SOL    HW140866   1.957   3.179   4.991  0.4994  0.2047  0.4658
13224SOL    HW240867   1.993   3.135   5.132 -0.2366 -0.1300  0.5547
13225SOL     OW40868   4.660   1.354   5.703 -0.0963  0.6647  0.1969
13225SOL    HW140869   4.751   1.330   5.688 -0.5609 -0.5015 -1.0491
13225SOL    HW240870   4.622   1.359   5.615 -0.8574  2.7656  0.5949
13226SOL     OW40871   3.581   5.972   2.078 -0.1190 -0.3833 -0.1585
13226SOL    HW140872   3.641   5.909   2.118  0.4823  1.0011  1.2358
13226SOL    HW240873   3.610   5.980   1.988 -0.4381 -2.3389 -0.4733
13227SOL     OW40874   7.282   0.307   7.767 -0.2589 -0.1801  0.0395
13227SOL    HW140875   7.293   0.395   7.732 -0.5849  0.9074  2.5203
13227SOL    HW240876   7.234   0.260   7.698  0.5424  1.3220 -1.6294
13228SOL     OW40877   0.156   1.223   2.539  0.0340  0.1073  0.4074
13228SOL    HW140878   0.072   1.178   2.549  0.1843 -0.2468  0.1056
13228SOL    HW240879   0.134   1.316   2.545 -0.9894  0.2786 -3.2313
13229SOL     OW40880   0.032   6.196   8.214 -0.3267 -0.0615 -0.0194
13229SOL    HW140881  -0.032   6.251   8.170  1.1082  1.1957 -0.6299
13229SOL    HW240882   0.069   6.142   8.144  0.3388  0.3001  0.0460
13230SOL     OW40883   4.202   4.095   4.883 -0.1487  0.2593 -0.3107
13230SOL    HW140884   4.288   4.071   4.850 -0.2809 -0.5446 -0.0911
13230SOL    HW240885   4.142   4.070   4.812 -0.4103 -1.2514  0.4057
13231SOL     OW40886   7.990   5.127   3.222 -0.1010 -0.1409  0.4767
13231SOL    HW140887   8.016   5.116   3.313 -1.6964 -2.1811  0.7441
13231SOL    HW240888   7.940   5.208   3.221  3.0295  1.9954  0.5879
13232SOL     OW40889   3.295   4.557   2.383 -0.2227 -0.3572 -0.1770
13232SOL    HW140890   3.250   4.630   2.340 -0.1832 -0.9139 -1.2110
13232SOL    HW240891   3.225   4.497   2.408 -0.2193 -0.1887  0.2403
13233SOL     OW40892   2.315   3.116   6.419  0.3720  0.2845 -0.0682
13233SOL    HW140893   2.236   3.171   6.413 -0.7129 -1.3315 -1.9216
13233SOL    HW240894   2.349   3.133   6.506 -1.5332  1.7305  0.4734
13234SOL     OW40895   8.288   1.375   6.399  0.2172  0.1035  0.1154
13234SOL    HW140896   8.275   1.466   6.424 -0.0153  0.2269 -0.4371
13234SOL    HW240897   8.206   1.331   6.422 -0.4667  0.4629 -1.4864
13235SOL     OW40898   0.346   3.145   6.571 -0.3310 -0.2974  0.3598
13235SOL    HW140899   0.349   3.112   6.661 -1.2043 -3.1642 -0.5613
13235SOL    HW240900   0.256   3.130   6.543 -0.2625  1.2115 -0.8083
13236SOL     OW40901   5.199   0.204   6.653 -0.7982  0.6568  0.2981
13236SOL    HW140902   5.231   0.262   6.722 -1.5643  0.9459  0.4237
13236SOL    HW240903   5.144   0.140   6.699  0.0083 -0.1652  0.1575
13237SOL     OW40904   1.953   4.441   0.032  0.0882  0.2589 -1.2123
13237SOL    HW140905   1.973   4.405  -0.055 -1.4949  1.7217 -2.2519
13237SOL    HW240906   1.862   4.471   0.025  0.3631  1.6423  0.5376
13238SOL     OW40907   1.888   8.447   6.067 -0.1126  0.0437 -0.2327
13238SOL    HW140908   1.954   8.485   6.125  0.3036  0.0207 -0.6881
13238SOL    HW240909   1.864   8.517   6.007 -0.4164  0.0149 -0.1495
13239SOL     OW40910   5.186   3.204   0.043  0.1109  0.4043 -0.0614
13239SOL    HW140911   5.162   3.271   0.106 -0.7018 -0.6568  0.7952
13239SOL    HW240912   5.272   3.230   0.011 -0.0006  1.6059  0.5625
13240SOL     OW40913   6.987   3.317   2.041  0.0009  0.4108 -0.0979
13240SOL    HW140914   7.043   3.248   2.078 -0.7600  0.6558  1.6080
13240SOL    HW240915   7.039   3.396   2.046 -0.4406  0.6405  1.4977
13241SOL     OW40916   6.317   1.111   5.710  0.0099  0.2476  0.3902
13241SOL    HW140917   6.222   1.116   5.709  0.0070  0.1973  0.4482
13241SOL    HW240918   6.337   1.031   5.758  0.0589 -0.4469 -0.7668
13242SOL     OW40919   3.891   7.649   2.431  0.1498  1.1686 -0.5440
13242SOL    HW140920   3.938   7.668   2.349 -2.3429  1.2669 -2.0486
13242SOL    HW240921   3.853   7.733   2.456 -2.2864  0.4132 -1.4664
13243SOL     OW40922   7.490   6.538   2.051  0.3216 -0.2535 -0.4752
13243SOL    HW140923   7.534   6.479   2.112  1.3845  1.0783  0.1144
13243SOL    HW240924   7.556   6.556   1.983  1.0776  2.3218  0.7826
13244SOL     OW40925   6.039   1.123   7.956 -0.4571 -0.5339  0.5676
13244SOL    HW140926   6.016   1.095   7.868  1.4006 -0.0558 -0.1264
13244SOL    HW240927   6.043   1.042   8.007 -0.7680 -0.8979  0.0219
13245SOL     OW40928   5.126   3.420   7.088  0.3118  0.3194  0.3702
13245SOL    HW140929   5.056   3.379   7.138  0.6705 -1.3727 -0.4470
13245SOL    HW240930   5.082   3.485   7.034 -0.7042 -0.8831 -0.3177
13246SOL     OW40931   0.484   2.948   6.421  0.2324  0.2848 -0.0300
13246SOL    HW140932   0.477   2.889   6.496 -2.8365  1.0847  0.4637
13246SOL    HW240933   0.442   3.029   6.450 -0.3585  0.8903 -2.3424
13247SOL     OW40934   7.868   7.151   3.979 -0.7245 -0.3182  0.0312
13247SOL    HW140935   7.856   7.191   4.065 -0.8288 -1.2875  0.4686
13247SOL    HW240936   7.897   7.224   3.924 -0.7845  0.3409  0.8430
13248SOL     OW40937   2.865   1.566   2.814  0.0179  0.6456 -0.3669
13248SOL    HW140938   2.837   1.608   2.733 -1.8854  0.0861 -0.0528
13248SOL    HW240939   2.798   1.499   2.831 -0.1487  1.3181  2.1098
13249SOL     OW40940   0.057   3.463   1.706 -0.3528  0.1362  0.1887
13249SOL    HW140941   0.018   3.520   1.640 -0.8501 -0.4423 -0.0218
13249SOL    HW240942   0.130   3.420   1.660 -1.3645 -1.0926 -0.3328
13250SOL     OW40943   8.408   7.253   8.178  0.1842  0.5020  0.0401
13250SOL    HW140944   8.434   7.163   8.157  0.6998  0.4809  0.7259
13250SOL    HW240945   8.393   7.253   8.273  1.7656  1.4957  0.3338
13251SOL     OW40946   6.916   3.716   6.527  0.2029 -0.2197  0.2149
13251SOL    HW140947   6.991   3.740   6.472 -0.2505 -1.2573 -0.8895
13251SOL    HW240948   6.956   3.680   6.606  0.8673  0.0030 -0.0059
13252SOL     OW40949   3.075   1.549   5.945  0.1346 -0.0347 -0.1342
13252SOL    HW140950   3.158   1.570   5.902  1.6365  0.0762  2.6124
13252SOL    HW240951   3.089   1.570   6.037 -2.7837 -0.5667  0.5407
13253SOL     OW40952   7.777   2.299   5.410  0.3313  0.5610 -0.2180
13253SOL    HW140953   7.849   2.357   5.384 -0.7746  1.9808 -0.2751
13253SOL    HW240954   7.748   2.334   5.494  0.6657 -0.9441  0.5643
13254SOL     OW40955   4.860   1.026   5.603 -0.2150 -0.2332  0.1131
13254SOL    HW140956   4.890   1.107   5.644  0.8637 -0.3784 -0.3505
13254SOL    HW240957   4.939   0.975   5.588 -0.5202 -0.1918 -2.1174
13255SOL     OW40958   3.377   7.449   1.471  0.1157  0.0309 -0.2692
13255SOL    HW140959   3.395   7.355   1.465  2.1576  0.3386  0.1006
13255SOL    HW240960   3.298   7.455   1.524 -2.0214 -1.5447 -3.0460
13256SOL     OW40961   1.367   3.432   7.922 -0.2055 -0.4218  0.7549
13256SOL    HW140962   1.451   3.446   7.879 -0.8142 -1.0045 -0.6663
13256SOL    HW240963   1.356   3.337   7.923 -0.6817 -0.3708  1.2708
13257SOL     OW40964   3.607   8.325   7.934 -0.1769  0.1669  0.1957
13257SOL    HW140965   3.527   8.284   7.966  0.2076 -0.8343 -0.0751
13257SOL    HW240966   3.652   8.255   7.887  1.5071  0.3035  1.5041
13258SOL     OW40967   1.259   5.432   3.263  0.2768 -0.2321 -0.2911
13258SOL    HW140968   1.237   5.523   3.283 -0.3324 -0.2770 -0.7363
13258SOL    HW240969   1.350   5.435   3.235  0.6596  0.0545  0.9166
13259SOL     OW40970   4.237   2.026   0.237 -0.5161 -0.6075 -0.1860
13259SOL    HW140971   4.232   1.930   0.245  1.6260 -0.7559  0.0989
13259SOL    HW240972   4.328   2.047   0.261 -1.2198  1.6178  0.7682
13260SOL     OW40973   4.404   4.460   6.700 -0.8470 -0.0723 -0.6553
13260SOL    HW140974   4.314   4.436   6.723 -1.4200  1.9607 -0.5764
13260SOL    HW240975   4.409   4.553   6.721  1.3484 -0.1894 -0.5030
13261SOL     OW40976   6.439   6.880   1.918  0.5454 -0.3543  0.0594
13261SOL    HW140977   6.357   6.892   1.966  0.8844 -0.3890  0.6563
13261SOL    HW240978   6.470   6.969   1.901 -0.0554 -0.3250 -0.9458
13262SOL     OW40979   1.043   1.322   0.712 -0.2631 -0.5691  0.5931
13262SOL    HW140980   1.133   1.292   0.704 -0.3477 -0.9227  0.9281
13262SOL    HW240981   0.998   1.284   0.636 -0.2806 -0.9677  0.7998
13263SOL     OW40982   6.887   4.194   2.857  0.0513  0.3017  0.0335
13263SOL    HW140983   6.864   4.236   2.774  0.8677  1.9844  0.6209
13263SOL    HW240984   6.962   4.244   2.890 -0.3143 -0.2668  1.8512
13264SOL     OW40985   7.388   5.129   0.118 -0.1409  0.0717 -0.3608
13264SOL    HW140986   7.430   5.046   0.142 -0.7741 -0.7163 -1.7984
13264SOL    HW240987   7.311   5.102   0.067 -0.8829  1.5362 -0.0670
13265SOL     OW40988   3.820   0.949   4.114 -0.5431  0.4385  0.1780
13265SOL    HW140989   3.755   0.911   4.056 -1.8043 -1.2073  2.5069
13265SOL    HW240990   3.793   0.922   4.202  2.8186  0.3317  1.3487
13266SOL     OW40991   7.917   6.293   3.478  0.2523  0.0747 -0.2017
13266SOL    HW140992   7.850   6.310   3.545 -0.7759  0.1448 -1.2232
13266SOL    HW240993   7.995   6.339   3.510  0.2566 -1.1572  1.7103
13267SOL     OW40994   6.285   5.071   0.805 -0.1384 -0.1094  0.2796
13267SOL    HW140995   6.289   4.977   0.819  2.1906  0.0410  1.0433
13267SOL    HW240996   6.360   5.106   0.852  0.1875  1.9308 -1.5720
13268SOL     OW40997   1.168   3.063   8.107 -0.2191 -0.6697  0.5308
13268SOL    HW140998   1.230   3.029   8.172 -0.8799 -2.9309  0.0820
13268SOL    HW240999   1.100   3.107   8.159  0.4588 -0.4082  1.2043
13269SOL     OW41000   8.120   0.179   7.900 -0.2590 -0.4351  0.5806
13269SOL    HW141001   8.024   0.178   7.905 -0.2896  0.5211  0.4375
13269SOL    HW241002   8.140   0.149   7.811 -0.4392 -0.3183  0.4997
13270SOL     OW41003   4.541   6.115   0.495  0.8465 -0.4102  0.3812
13270SOL    HW141004   4.490   6.076   0.566  0.2742 -1.5780 -0.6549
13270SOL    HW241005   4.531   6.055   0.421  0.6947  1.2191 -0.9901
13271SOL     OW41006   0.618   3.987   1.010 -0.4163  0.6223  0.0883
13271SOL    HW141007   0.661   4.072   0.997 -0.2129  0.6141  0.6771
13271SOL    HW241008   0.667   3.946   1.081  0.8175 -0.8934 -1.5380
13272SOL     OW41009   1.770   2.896   6.536  0.7652 -0.1017 -0.5095
13272SOL    HW141010   1.808   2.975   6.499  0.9491 -0.0775 -0.2707
13272SOL    HW241011   1.841   2.831   6.534  0.8443 -0.0348  0.0012
13273SOL     OW41012   6.644   3.587   0.272  0.9783  0.0236 -0.0697
13273SOL    HW141013   6.704   3.515   0.288  0.4170 -0.3137  0.6070
13273SOL    HW241014   6.694   3.665   0.294  2.0000 -0.0299 -1.9818
13274SOL     OW41015   7.828   1.966   7.989 -0.5458 -0.6656  0.1774
13274SOL    HW141016   7.903   1.911   7.968 -1.0009 -1.0182 -0.5723
13274SOL    HW241017   7.851   2.007   8.073  2.2727  2.3405 -1.7615
13275SOL     OW41018   1.409   6.376   2.847  0.4042  0.3306  0.7220
13275SOL    HW141019   1.332   6.433   2.837  0.0030  0.0133  1.8573
13275SOL    HW241020   1.460   6.391   2.767 -1.2435 -0.0784 -0.4554
13276SOL     OW41021   1.334   5.446   2.277 -0.3374 -0.0627  0.3524
13276SOL    HW141022   1.288   5.363   2.267  0.7931 -0.8927  1.7520
13276SOL    HW241023   1.397   5.448   2.205  0.7314 -1.2030  1.2067
13277SOL     OW41024   2.775   3.489   0.764  0.0129 -0.2040  0.3430
13277SOL    HW141025   2.822   3.464   0.843  0.5405  2.2768  0.8977
13277SOL    HW241026   2.816   3.438   0.694  1.8167  0.0382  1.1838
13278SOL     OW41027   6.491   0.191   6.531 -0.1245 -0.2849  0.0461
13278SOL    HW141028   6.425   0.217   6.466 -0.4239 -1.4090 -0.1178
13278SOL    HW241029   6.537   0.272   6.551 -1.1939  0.4248 -0.2508
13279SOL     OW41030   6.808   7.691   3.160 -0.1328 -0.1790 -0.0636
13279SOL    HW141031   6.850   7.686   3.074  1.6026 -2.3787  0.8196
13279SOL    HW241032   6.840   7.773   3.198  2.5370 -1.1908  0.0930
13280SOL     OW41033   6.054   4.251   3.006  0.2268  0.0132 -0.4118
13280SOL    HW141034   6.138   4.283   2.972  1.1751 -1.6227  0.2785
13280SOL    HW241035   6.078   4.203   3.086 -1.5737  0.9841  0.7764
13281SOL     OW41036   6.420   0.356   4.915  0.1844  0.4348  0.1790
13281SOL    HW141037   6.478   0.428   4.893 -0.7063  1.3697  0.8385
13281SOL    HW241038   6.348   0.363   4.852 -1.2790  1.8030  1.9375
13282SOL     OW41039   8.295   3.753   6.887 -0.0031  0.3665 -0.3151
13282SOL    HW141040   8.307   3.834   6.937 -0.9598  0.0025  0.5285
13282SOL    HW241041   8.353   3.763   6.812 -0.3283  1.9805 -0.3902
13283SOL     OW41042   5.290   3.786   1.996  0.1148  0.8075 -0.1489
13283SOL    HW141043   5.356   3.819   2.057  0.3217  1.0837 -0.5206
13283SOL    HW241044   5.207   3.806   2.039  0.2744  0.1659  0.4692
13284SOL     OW41045   6.319   6.572   2.025 -0.1689 -0.7694 -0.0642
13284SOL    HW141046   6.237   6.608   1.992 -1.0453 -2.4084  0.2546
13284SOL    HW241047   6.387   6.629   1.988 -1.5127  2.9471  2.4955
13285SOL     OW41048   3.609   8.344   1.359  1.0453 -0.8123 -0.3082
13285SOL    HW141049   3.537   8.294   1.321  0.3661  0.6140 -0.9839
13285SOL    HW241050   3.615   8.422   1.305 -0.2749  1.5887  2.6783
13286SOL     OW41051   1.391   2.310   5.554  0.0287 -0.3471  0.1354
13286SOL    HW141052   1.328   2.330   5.623  1.2411  1.8864  0.6943
13286SOL    HW241053   1.359   2.359   5.478  2.6987  3.7863  1.3471
13287SOL     OW41054   1.891   8.110   2.494 -0.2417 -0.0357 -0.1691
13287SOL    HW141055   1.941   8.175   2.542  1.7695 -0.9043 -0.9805
13287SOL    HW241056   1.817   8.158   2.456  1.2177  1.7852 -0.8135
13288SOL     OW41057   7.599   4.146   0.460 -0.4420  0.0890  0.7626
13288SOL    HW141058   7.627   4.119   0.548 -3.2365 -2.3567  1.0513
13288SOL    HW241059   7.572   4.065   0.418  0.7681  1.1904 -2.4495
13289SOL     OW41060   0.413   2.452   6.275 -0.1027 -0.1241  0.2073
13289SOL    HW141061   0.390   2.545   6.283 -0.6037 -0.0021 -1.9152
13289SOL    HW241062   0.334   2.411   6.242  0.3713 -1.1591  0.3294
13290SOL     OW41063   1.991   6.560   0.419  0.2083  0.6951 -0.0089
13290SOL    HW141064   2.049   6.635   0.429  0.5754  0.5401 -0.8641
13290SOL    HW241065   2.031   6.491   0.472 -0.6884  1.3768  1.6403
13291SOL     OW41066   2.665   1.967   1.624 -0.3988  0.1763  0.1497
13291SOL    HW141067   2.591   2.016   1.661 -1.8036 -1.8527  0.1807
13291SOL    HW241068   2.683   2.010   1.541 -1.6949  0.6511  0.0951
13292SOL     OW41069   6.802   7.287   2.212 -0.2069 -0.0077  0.2754
13292SOL    HW141070   6.771   7.203   2.246 -0.3728  0.2212  0.7024
13292SOL    HW241071   6.839   7.331   2.288 -0.8540  0.6383  0.2250
13293SOL     OW41072   7.436   0.244   0.277  0.1564 -0.5459  0.5511
13293SOL    HW141073   7.348   0.263   0.310 -0.2977 -1.7864  0.1053
13293SOL    HW241074   7.487   0.223   0.356 -0.3281 -1.2470  0.6838
13294SOL     OW41075   5.426   2.304   2.246 -0.0697  0.0146 -0.1235
13294SOL    HW141076   5.433   2.270   2.335  0.6191 -1.1400 -0.6015
13294SOL    HW241077   5.503   2.360   2.235 -0.1281  0.1162 -0.0251
13295SOL     OW41078   3.959   7.316   0.805 -0.0961  0.2661  0.1384
13295SOL    HW141079   4.042   7.293   0.847 -0.4767 -0.1115  0.7037
13295SOL    HW241080   3.984   7.369   0.730  0.6213  0.8087  0.7412
13296SOL     OW41081   5.293   2.420   5.527 -0.4263  0.0696  0.2171
13296SOL    HW141082   5.364   2.388   5.471  0.9971 -0.5817  2.2398
13296SOL    HW241083   5.313   2.513   5.539 -0.1752 -0.0040  0.3909
13297SOL     OW41084   3.839   5.997   8.034 -0.1629  0.1340  0.2003
13297SOL    HW141085   3.782   5.975   7.960  1.8020 -0.9379 -1.0771
13297SOL    HW241086   3.853   6.092   8.025  0.5500 -0.0728 -1.2221
13298SOL     OW41087   7.749   5.695   0.303 -0.2896  0.2668  0.3799
13298SOL    HW141088   7.757   5.604   0.330  0.0095 -0.1395 -0.9603
13298SOL    HW241089   7.660   5.720   0.327 -0.7420 -0.7238 -0.1923
13299SOL     OW41090   2.775   6.065   2.553 -0.0699  0.4326 -0.0991
13299SOL    HW141091   2.781   5.973   2.529 -0.5211  0.4597 -0.3158
13299SOL    HW241092   2.709   6.101   2.495  2.1385  1.5874 -2.0718
13300SOL     OW41093   3.164   4.192   4.089 -0.5115 -0.2630 -0.2879
13300SOL    HW141094   3.136   4.109   4.050 -1.7279 -0.2948  0.5882
13300SOL    HW241095   3.088   4.223   4.138  0.0760  1.1452 -0.2045
13301SOL     OW41096   1.832   6.465   7.149 -0.1135 -0.1234 -0.1327
13301SOL    HW141097   1.743   6.432   7.168 -0.1163 -0.1053 -0.1151
13301SOL    HW241098   1.888   6.414   7.208 -0.3182  1.3115  1.3699
13302SOL     OW41099   4.738   3.012   5.658  0.3782  0.0330  0.4070
13302SOL    HW141100   4.650   3.044   5.638  1.7206  2.2229 -2.8241
13302SOL    HW241101   4.724   2.930   5.705 -3.3210  1.0068  1.3364
13303SOL     OW41102   8.139   3.604   2.006 -0.0058  0.2056  0.5937
13303SOL    HW141103   8.068   3.624   2.066  0.3811 -0.3106  1.2319
13303SOL    HW241104   8.100   3.614   1.919 -1.5102 -2.2102  0.8982
13304SOL     OW41105   1.068   4.803   3.835  0.6616 -0.1976 -0.4106
13304SOL    HW141106   1.145   4.835   3.882 -0.3250  0.8633  0.5405
13304SOL    HW241107   1.030   4.882   3.796 -0.1862 -0.6419 -0.4919
13305SOL     OW41108   0.467   2.725   7.084 -0.2498 -0.4611  0.4799
13305SOL    HW141109   0.381   2.693   7.056  0.1298 -0.0424 -1.2517
13305SOL    HW241110   0.525   2.650   7.073  0.1992  0.1180 -1.4288
13306SOL     OW41111   3.740   6.016   7.190 -0.5984  0.0783  0.1936
13306SOL    HW141112   3.688   6.071   7.249  0.5541  2.3258 -0.7269
13306SOL    HW241113   3.726   5.927   7.221  0.3917  1.1216  4.2235
13307SOL     OW41114   3.554   0.162   4.675 -0.5973 -0.0704 -0.6194
13307SOL    HW141115   3.464   0.173   4.646 -1.3471 -0.4732  1.4479
13307SOL    HW241116   3.565   0.227   4.744  0.7699  0.0889 -0.9571
13308SOL     OW41117   8.363   3.784   4.485 -0.0029 -0.1191 -0.0733
13308SOL    HW141118   8.340   3.761   4.395  0.9128 -0.8740 -0.1280
13308SOL    HW241119   8.288   3.756   4.537 -0.2443 -0.3086 -0.5196
13309SOL     OW41120   3.751   3.414   3.640  0.0405 -0.3770 -0.2345
13309SOL    HW141121   3.813   3.432   3.711  0.9086  0.3663 -1.1439
13309SOL    HW241122   3.779   3.329   3.605 -0.7937 -1.0612  0.6993
13310SOL     OW41123   6.571   5.282   1.837 -0.2685 -0.0296  0.6940
13310SOL    HW141124   6.604   5.264   1.925 -0.1711 -0.4902  0.5657
13310SOL    HW241125   6.486   5.323   1.851 -0.1146  0.1859  1.0092
13311SOL     OW41126   1.621   3.742   5.392  0.3188  0.2703  0.2790
13311SOL    HW141127   1.594   3.652   5.373 -0.1778  0.5288 -0.2993
13311SOL    HW241128   1.699   3.755   5.339 -0.0075  0.3941 -0.1814
13312SOL     OW41129   4.283   6.253   8.569  0.3027  1.0048  0.3926
13312SOL    HW141130   4.213   6.234   8.630 -0.1386 -1.6121 -0.8008
13312SOL    HW241131   4.239   6.271   8.486  0.9692  1.3732  0.1112
13313SOL     OW41132   0.510   1.303   6.154  0.0479 -0.3097  0.1501
13313SOL    HW141133   0.516   1.248   6.232  0.9294  0.2425  0.4936
13313SOL    HW241134   0.447   1.371   6.178  0.5508  0.0366  0.4980
13314SOL     OW41135   1.384   3.605   1.619 -0.1856 -0.3117  0.0898
13314SOL    HW141136   1.428   3.690   1.618  1.5112 -1.1299 -1.7743
13314SOL    HW241137   1.454   3.542   1.635 -1.2642 -1.4495  0.4951
13315SOL     OW41138   6.006   4.360   5.375  0.3024 -0.0436 -0.3583
13315SOL    HW141139   6.032   4.422   5.306 -0.9215  0.0723 -0.7317
13315SOL    HW241140   6.040   4.398   5.455 -1.0380  1.5089 -0.4815
13316SOL     OW41141   1.892   1.492   3.445  0.0465 -0.5997  0.0334
13316SOL    HW141142   1.911   1.530   3.359  2.0154  0.9469  1.0441
13316SOL    HW241143   1.811   1.534   3.472  0.5698  0.5918 -0.1798
13317SOL     OW41144   7.206   5.787   5.226 -0.5109  0.1580  0.2620
13317SOL    HW141145   7.115   5.776   5.199 -0.9733 -0.3184  1.9423
13317SOL    HW241146   7.243   5.699   5.222  0.3857  0.5474 -1.9439
13318SOL     OW41147   3.733   2.979   6.711 -0.2287 -0.7004  0.7487
13318SOL    HW141148   3.671   3.036   6.665  0.4922 -0.6431 -0.2065
13318SOL    HW241149   3.779   3.037   6.771 -0.0561 -0.4237  0.3580
13319SOL     OW41150   7.789   3.883   2.520 -0.4389 -0.2255 -0.1359
13319SOL    HW141151   7.762   3.847   2.605  0.2514 -0.2343  0.0832
13319SOL    HW241152   7.789   3.978   2.534  0.4539 -0.2563  0.1189
13320SOL     OW41153   0.154   6.660   0.231  0.1495  0.0373  0.3251
13320SOL    HW141154   0.109   6.583   0.266 -0.0733 -0.0563 -0.1649
13320SOL    HW241155   0.227   6.624   0.181 -0.1519  0.1295 -0.1848
13321SOL     OW41156   8.378   7.945   3.514 -0.3004  0.0417  0.3395
13321SOL    HW141157   8.424   7.979   3.591  0.4636 -0.6068  0.1718
13321SOL    HW241158   8.407   7.855   3.506 -2.4319 -0.7519  0.8839
13322SOL     OW41159   8.384   2.231   1.210 -0.2150  0.1447  0.1014
13322SOL    HW141160   8.460   2.178   1.186 -0.7826 -0.9247  0.6103
13322SOL    HW241161   8.309   2.181   1.178 -0.7079  1.2838 -0.5652
13323SOL     OW41162   7.149   6.508   3.109 -0.3565  0.3788 -0.1173
13323SOL    HW141163   7.126   6.445   3.040 -0.6368 -0.2336  0.5154
13323SOL    HW241164   7.236   6.540   3.085 -0.8479  0.9255 -1.2793
13324SOL     OW41165   3.445   5.692   0.378 -0.0075  0.2392  0.0977
13324SOL    HW141166   3.367   5.719   0.427  0.9293  0.0742  1.7344
13324SOL    HW241167   3.489   5.629   0.435  0.9394 -0.2662 -1.1328
13325SOL     OW41168   4.736   4.469   7.198 -0.2978  0.1391  0.5569
13325SOL    HW141169   4.778   4.432   7.276  0.7963 -2.6532 -1.1887
13325SOL    HW241170   4.796   4.537   7.168 -0.2335  0.5402  1.5522
13326SOL     OW41171   7.367   5.466   7.151 -0.1533 -0.1996  0.3812
13326SOL    HW141172   7.314   5.524   7.096 -1.6869 -1.7710  0.1094
13326SOL    HW241173   7.341   5.378   7.124  2.3114 -1.0507  0.5798
13327SOL     OW41174   3.018   2.208   3.453 -0.6504  0.2365 -0.0823
13327SOL    HW141175   3.033   2.208   3.548 -0.6242  0.8195 -0.0787
13327SOL    HW241176   3.081   2.146   3.418  0.1979  0.9465  0.1606
13328SOL     OW41177   7.628   5.124   5.982 -0.0393  0.1650 -0.1909
13328SOL    HW141178   7.711   5.098   6.022 -0.7190  0.4318  1.4763
13328SOL    HW241179   7.606   5.206   6.026 -1.0956  0.1906 -0.7558
13329SOL     OW41180   4.807   0.690   1.740 -0.2595  0.0326 -0.5829
13329SOL    HW141181   4.848   0.618   1.788  0.0314  0.3562 -0.3467
13329SOL    HW241182   4.792   0.654   1.652  1.1565  0.1364 -0.8819
13330SOL     OW41183   5.300   7.091   3.558  0.0962  0.0552 -0.1172
13330SOL    HW141184   5.311   7.096   3.653  0.8292  0.9444 -0.2362
13330SOL    HW241185   5.227   7.150   3.539  0.5050  0.5387 -0.1933
13331SOL     OW41186   4.169   4.147   6.651 -0.5356  0.3794 -0.2315
13331SOL    HW141187   4.162   4.232   6.694 -0.0544  0.6938 -0.7567
13331SOL    HW241188   4.262   4.138   6.629 -0.4372 -0.6278  0.5072
13332SOL     OW41189   1.478   3.071   1.062  0.0513 -0.0378 -0.0634
13332SOL    HW141190   1.525   2.993   1.032  0.0849 -0.5130  1.1459
13332SOL    HW241191   1.493   3.072   1.157 -1.0729  0.6772  0.1215
13333SOL     OW41192   7.850   2.331   0.087 -0.3414  0.5002 -0.1372
13333SOL    HW141193   7.833   2.414   0.043 -1.3810 -0.3438 -1.3935
13333SOL    HW241194   7.811   2.342   0.174  0.9617  1.8701  0.3232
13334SOL     OW41195   4.935   2.253   8.311  0.0767 -0.1678  0.1797
13334SOL    HW141196   4.964   2.343   8.327 -1.0264  0.1022  0.7541
13334SOL    HW241197   4.868   2.262   8.243  1.3999 -0.8042 -1.2860
13335SOL     OW41198   5.440   6.167   0.957 -0.4306  0.0854  0.1366
13335SOL    HW141199   5.464   6.148   1.048 -2.2179  1.2779  0.9111
13335SOL    HW241200   5.465   6.088   0.909  0.0241 -0.8059  1.7650
13336SOL     OW41201   2.683   0.217   7.966  0.1204 -0.2385  0.3835
13336SOL    HW141202   2.613   0.175   8.016 -0.4955  0.6808  0.3226
13336SOL    HW241203   2.762   0.203   8.018 -0.3891  0.0889  1.2736
13337SOL     OW41204   1.308   5.864   4.339  0.3363 -0.5968 -0.7237
13337SOL    HW141205   1.318   5.791   4.399  1.5199  0.8466  0.9489
13337SOL    HW241206   1.217   5.891   4.348 -0.0460 -1.6831 -1.1841
13338SOL     OW41207   3.434   7.921   4.530 -0.1311 -0.3587 -0.1256
13338SOL    HW141208   3.382   7.844   4.553  0.4914 -2.0996 -3.7812
13338SOL    HW241209   3.493   7.891   4.461  3.7508  2.2304  1.6676
13339SOL     OW41210   6.325   0.599   5.394 -0.4035 -0.4683 -0.2037
13339SOL    HW141211   6.302   0.605   5.301 -3.0597  0.6450  0.4471
13339SOL    HW241212   6.268   0.531   5.429 -1.0739  0.6688  1.0124
13340SOL     OW41213   1.209   7.970   5.782  1.0358  0.5367 -0.1201
13340SOL    HW141214   1.182   8.058   5.756 -1.4742  0.0036  0.4182
13340SOL    HW241215   1.258   7.936   5.707 -0.0785  1.5217 -1.3374
13341SOL     OW41216   4.946   5.261   0.613 -0.6177 -0.1409  0.2837
13341SOL    HW141217   4.924   5.349   0.582  0.7256 -0.0255 -0.3871
13341SOL    HW241218   4.985   5.218   0.537 -0.9928 -1.2353  0.6912
13342SOL     OW41219   6.105   5.755   3.170  0.0787 -0.4101  0.3781
13342SOL    HW141220   6.070   5.797   3.249  1.8563 -0.3126  1.1553
13342SOL    HW241221   6.094   5.820   3.101  0.8118  0.5090  1.1068
13343SOL     OW41222   2.611   2.867   6.903  0.0375  0.2048  0.4661
13343SOL    HW141223   2.574   2.932   6.963  1.1807 -0.8489  2.4236
13343SOL    HW241224   2.706   2.878   6.912  0.2693  0.5892 -1.8705
13344SOL     OW41225   5.162   6.345   7.205 -0.2616 -0.1331  0.0187
13344SOL    HW141226   5.220   6.270   7.192 -0.0427  0.2761 -1.6089
13344SOL    HW241227   5.112   6.324   7.284  1.7931 -0.6868  1.2473
13345SOL     OW41228   3.876   4.678   2.395 -0.3841  0.0523  0.7422
13345SOL    HW141229   3.847   4.617   2.464 -0.4949 -0.3753  0.3228
13345SOL    HW241230   3.812   4.666   2.324  1.0086 -1.1841 -0.3532
13346SOL     OW41231   5.028   3.215   1.089 -0.7659 -0.0662 -0.4135
13346SOL    HW141232   5.080   3.171   1.022 -1.2478 -1.4025  0.0450
13346SOL    HW241233   4.992   3.144   1.142 -3.7935  0.6941 -1.2288
13347SOL     OW41234   1.412   2.487   0.360 -0.4969  0.1921 -0.9116
13347SOL    HW141235   1.444   2.560   0.306  1.7145  0.2765  0.3759
13347SOL    HW241236   1.368   2.530   0.433  1.8712  0.4189  0.5038
13348SOL     OW41237   6.866   3.066   1.002  0.4977  0.6006  0.4488
13348SOL    HW141238   6.878   3.155   0.967  0.6433  0.3653 -0.1089
13348SOL    HW241239   6.917   3.066   1.083  1.7402  0.5768 -0.3039
13349SOL     OW41240   8.484   7.253   7.610 -0.4016 -0.0616 -0.1457
13349SOL    HW141241   8.401   7.206   7.597 -1.5347  1.3799  1.5444
13349SOL    HW241242   8.535   7.195   7.666 -0.9975 -0.1679  0.3009
13350SOL     OW41243   5.067   2.860   5.326  0.4847  0.5928  0.8715
13350SOL    HW141244   5.132   2.926   5.349  3.1946 -1.3882 -0.5147
13350SOL    HW241245   5.086   2.838   5.235 -2.6061  0.3396  0.1643
13351SOL     OW41246   4.658   4.770   8.394  0.0594 -0.5416  0.3850
13351SOL    HW141247   4.691   4.794   8.481 -0.8860  0.6858  0.4358
13351SOL    HW241248   4.650   4.675   8.396  0.2123 -0.5406  1.5844
13352SOL     OW41249   7.385   2.358   2.937 -0.3288  0.3522 -0.3938
13352SOL    HW141250   7.305   2.386   2.981  0.0366  0.6119  0.1192
13352SOL    HW241251   7.455   2.392   2.992  0.1359 -0.9748 -0.1248
13353SOL     OW41252   3.230   1.738   1.882  0.5122 -0.4193 -0.1856
13353SOL    HW141253   3.253   1.778   1.798 -0.1444 -1.0680 -0.6856
13353SOL    HW241254   3.303   1.759   1.939  1.1500 -0.2908 -1.0289
13354SOL     OW41255   7.469   2.865   2.224  0.0865 -0.5001  0.2308
13354SOL    HW141256   7.492   2.909   2.306  1.5957 -0.5282 -0.1394
13354SOL    HW241257   7.502   2.775   2.235  2.4708  0.0961 -1.2209
13355SOL     OW41258   4.241   2.939   3.943  1.0738  0.4720 -0.0665
13355SOL    HW141259   4.190   2.978   3.872  2.2776  0.5782 -0.9120
13355SOL    HW241260   4.184   2.942   4.019 -0.0662  0.8304 -0.9123
13356SOL     OW41261   6.852   1.079   0.059  0.1192  0.2748 -0.0173
13356SOL    HW141262   6.789   1.008   0.050  1.8307 -1.1544 -1.5060
13356SOL    HW241263   6.842   1.130  -0.021  0.7075  0.1449 -0.1794
13357SOL     OW41264   6.166   4.424   7.276 -0.0535  0.0700  0.6972
13357SOL    HW141265   6.134   4.348   7.228  0.2405  0.1463  0.3724
13357SOL    HW241266   6.099   4.491   7.263  0.0931  0.1356  0.2685
13358SOL     OW41267   6.084   1.720   5.151  0.1069  0.1786  0.5519
13358SOL    HW141268   6.059   1.810   5.171 -0.0178  0.2588  0.0405
13358SOL    HW241269   6.173   1.711   5.185  0.0815  0.4638  0.6928
13359SOL     OW41270   7.411   0.644   7.227 -0.3716 -0.4344 -0.0525
13359SOL    HW141271   7.452   0.700   7.293 -2.6066  2.4980 -0.9474
13359SOL    HW241272   7.317   0.650   7.245 -0.8020 -2.8298 -1.0981
13360SOL     OW41273   7.519   7.074   3.932  0.1019  0.0258  0.3355
13360SOL    HW141274   7.603   7.046   3.968  0.1263  0.9641  1.0356
13360SOL    HW241275   7.468   7.104   4.007  0.1802  2.1027 -0.3731
13361SOL     OW41276   5.160   1.363   3.867 -0.4423 -0.2071  0.2821
13361SOL    HW141277   5.072   1.392   3.843 -0.5645 -0.8514 -0.0871
13361SOL    HW241278   5.170   1.390   3.958 -0.7718  0.4421  0.1371
13362SOL     OW41279   1.489   6.852   1.036 -0.3868  0.0913  0.1791
13362SOL    HW141280   1.483   6.911   0.961  0.8313 -1.4344 -1.1594
13362SOL    HW241281   1.451   6.903   1.108 -1.0276  1.8298 -1.2963
13363SOL     OW41282   8.431   0.626   6.676  0.1495  0.0100  0.4905
13363SOL    HW141283   8.340   0.602   6.694 -0.0907  0.3489 -0.2278
13363SOL    HW241284   8.466   0.552   6.626 -0.0187  0.3054 -0.0645
13364SOL     OW41285   6.267   5.627   0.364  0.1952 -0.3120 -0.4220
13364SOL    HW141286   6.290   5.548   0.412  0.6242  0.8656  1.4195
13364SOL    HW241287   6.344   5.683   0.371 -0.3867  0.5864 -1.0058
13365SOL     OW41288   2.993   4.969   1.413 -0.2478 -0.2192 -0.6276
13365SOL    HW141289   2.919   4.998   1.466 -0.4239  1.1632 -1.5750
13365SOL    HW241290   2.982   4.874   1.407 -1.3550 -0.1598  0.1198
13366SOL     OW41291   6.786   6.058   5.730 -0.1514 -0.1596  0.6082
13366SOL    HW141292   6.855   6.043   5.795  0.7276  1.5868  0.1399
13366SOL    HW241293   6.831   6.049   5.646 -0.5366  0.8102  0.2948
13367SOL     OW41294   2.614   4.004   8.242 -0.1260  0.4791 -0.0395
13367SOL    HW141295   2.700   3.963   8.232 -0.1623  0.4494 -0.2256
13367SOL    HW241296   2.552   3.931   8.233 -0.1717  0.5001  0.0957
13368SOL     OW41297   0.704   5.321   5.962 -0.7895  0.2494  0.5109
13368SOL    HW141298   0.655   5.287   5.888 -1.8160  0.2165  1.1904
13368SOL    HW241299   0.769   5.379   5.923  0.1002 -1.3701 -0.5736
13369SOL     OW41300   1.960   1.172   1.854 -0.1129  0.1360  0.0508
13369SOL    HW141301   1.938   1.088   1.892 -0.1177  0.8915  1.8116
13369SOL    HW241302   1.954   1.234   1.926  2.6925  1.2212 -0.5000
13370SOL     OW41303   4.691   1.649   5.677 -0.7575  0.5880 -0.4435
13370SOL    HW141304   4.656   1.691   5.755 -0.2676  1.3680 -0.6306
13370SOL    HW241305   4.672   1.556   5.689 -0.4400  0.6573  0.7399
13371SOL     OW41306   8.343   4.323   4.445  0.1644  0.1345  0.3759
13371SOL    HW141307   8.417   4.269   4.418  0.3075  0.6337 -0.2460
13371SOL    HW241308   8.280   4.316   4.373  0.2671  0.9483  0.2053
13372SOL     OW41309   7.300   4.441   6.666  0.2360 -0.3073 -0.0984
13372SOL    HW141310   7.370   4.377   6.656  0.8473  0.2812  0.3016
13372SOL    HW241311   7.229   4.408   6.611  1.4880  0.0378 -2.0061
13373SOL     OW41312   5.802   2.049   5.415  0.1713 -0.0086  0.8903
13373SOL    HW141313   5.798   2.131   5.367  3.5677  0.1508  0.6603
13373SOL    HW241314   5.745   1.989   5.365  1.2001  0.9765 -1.6444
13374SOL     OW41315   7.525   2.912   3.666  0.0906  0.0173  0.2201
13374SOL    HW141316   7.447   2.908   3.611  0.7204  2.7461 -1.0207
13374SOL    HW241317   7.587   2.852   3.623 -0.6882 -0.7722  0.1738
13375SOL     OW41318   5.518   2.760   3.426  0.4890  0.1070  0.1441
13375SOL    HW141319   5.461   2.797   3.494  0.4747  0.5422 -0.0966
13375SOL    HW241320   5.514   2.666   3.440  2.2800  0.2565  2.1906
13376SOL     OW41321   1.717   0.891   4.617 -0.2939  0.0938  0.0435
13376SOL    HW141322   1.660   0.965   4.594 -0.1737  0.2321  0.1856
13376SOL    HW241323   1.806   0.923   4.597 -0.3802 -0.7187 -1.7986
13377SOL     OW41324   4.155   6.732   7.828 -0.3176  0.1966  0.1685
13377SOL    HW141325   4.061   6.734   7.847 -0.2268  1.1659  0.6075
13377SOL    HW241326   4.164   6.671   7.756 -1.2000 -0.4516  0.5933
13378SOL     OW41327   7.370   7.233   1.486 -0.8640 -0.2482 -0.2448
13378SOL    HW141328   7.280   7.251   1.459 -1.2067  1.0614  1.5901
13378SOL    HW241329   7.421   7.305   1.449 -0.9320  0.1869  0.4989
13379SOL     OW41330   5.942   8.386   1.093 -0.0567  0.1015  0.1312
13379SOL    HW141331   6.027   8.428   1.084 -0.0996 -0.0346 -1.1278
13379SOL    HW241332   5.946   8.311   1.034 -0.3899 -1.0242  1.4669
13380SOL     OW41333   4.386   3.685   0.915  0.5725  0.0379 -0.4911
13380SOL    HW141334   4.436   3.644   0.844 -1.9235 -1.8657 -1.3103
13380SOL    HW241335   4.358   3.769   0.879  2.1384  0.6196 -0.4315
13381SOL     OW41336   0.794   7.759   1.294  0.8170 -0.5357  0.3025
13381SOL    HW141337   0.846   7.797   1.364  0.1200  0.8502  0.1042
13381SOL    HW241338   0.797   7.824   1.224  0.2876 -1.2325 -0.3789
13382SOL     OW41339   1.689   7.323   5.996 -0.0352 -0.1104 -0.2007
13382SOL    HW141340   1.731   7.327   5.910  0.5372  1.8266  0.1288
13382SOL    HW241341   1.760   7.329   6.059 -0.5692  0.0849  0.4009
13383SOL     OW41342   8.034   2.125   0.734  0.0368  0.0820  0.9727
13383SOL    HW141343   7.985   2.124   0.816 -0.6112  2.0847  0.6630
13383SOL    HW241344   8.103   2.190   0.748  0.0980  0.2403  0.0293
13384SOL     OW41345   4.000   3.813   2.414 -0.3104 -0.4641 -0.0545
13384SOL    HW141346   3.977   3.893   2.366  0.7643  0.4457  0.9124
13384SOL    HW241347   3.961   3.742   2.362 -2.9164  0.7839  0.0662
13385SOL     OW41348   5.662   4.942   5.063  0.1572 -0.1277  0.6118
13385SOL    HW141349   5.667   4.849   5.040  0.2804  0.3466 -1.5121
13385SOL    HW241350   5.753   4.972   5.062  0.0048  0.3275 -0.2228
13386SOL     OW41351   0.031   0.739   2.772  0.2239 -0.2595  0.3648
13386SOL    HW141352  -0.014   0.660   2.741 -0.8257  0.9533 -1.3805
13386SOL    HW241353   0.090   0.763   2.700 -1.5252  2.0678 -0.4106
13387SOL     OW41354   3.883   6.749   1.890 -0.0733  0.6482  0.0054
13387SOL    HW141355   3.827   6.673   1.873  1.4538 -0.3035 -1.1151
13387SOL    HW241356   3.937   6.723   1.964  0.9893  0.2785 -0.8644
13388SOL     OW41357   7.171   3.000   7.491  0.5496 -0.1972  0.1085
13388SOL    HW141358   7.129   3.082   7.468 -1.7185 -1.0644  0.8624
13388SOL    HW241359   7.184   3.005   7.586  6.1245  1.7041 -0.4046
13389SOL     OW41360   2.011   8.003   4.608 -0.3012 -0.2119 -0.2591
13389SOL    HW141361   2.084   7.993   4.547  0.5489  0.0479  0.6930
13389SOL    HW241362   1.970   8.085   4.583 -0.4166 -0.4782 -0.9524
13390SOL     OW41363   1.632   4.958   5.747 -0.7629  0.0581 -0.3388
13390SOL    HW141364   1.573   4.893   5.786  0.4197 -0.9045 -0.1060
13390SOL    HW241365   1.624   4.943   5.653 -1.5130  0.5095 -0.3585
13391SOL     OW41366   6.777   5.897   5.171  0.0880  0.2465  0.1047
13391SOL    HW141367   6.697   5.847   5.183  0.8609 -0.7813  1.1922
13391SOL    HW241368   6.798   5.887   5.079 -0.5594 -0.2147 -0.0009
13392SOL     OW41369   7.264   5.337   0.269 -0.3931  0.4623 -0.3699
13392SOL    HW141370   7.216   5.261   0.303 -0.9942  1.0620  0.1547
13392SOL    HW241371   7.338   5.299   0.221  1.2694 -0.4292  2.6745
13393SOL     OW41372   5.642   6.990   1.132 -0.2700  0.2243 -0.3174
13393SOL    HW141373   5.672   6.900   1.148 -1.9296 -0.4178 -0.6257
13393SOL    HW241374   5.694   7.043   1.192  0.8314 -0.9133 -0.2070
13394SOL     OW41375   4.525   0.026   2.662 -0.3584  0.4349  0.0134
13394SOL    HW141376   4.530  -0.000   2.570 -0.2952  0.7583 -0.0760
13394SOL    HW241377   4.614   0.011   2.695 -0.6143 -0.5795  0.2709
13395SOL     OW41378   3.454   1.757   0.393  0.1142  0.0353 -0.0015
13395SOL    HW141379   3.543   1.785   0.417  0.3027 -1.6903  1.5089
13395SOL    HW241380   3.447   1.668   0.426 -1.1263 -1.0386 -2.8529
13396SOL     OW41381   1.513   2.757   6.543  0.0759 -0.1910  0.0018
13396SOL    HW141382   1.457   2.762   6.466  0.1147 -2.7693 -0.2564
13396SOL    HW241383   1.600   2.780   6.509 -0.0172 -0.6870 -0.5973
13397SOL     OW41384   4.247   5.503   2.593  0.8234 -0.0173 -0.0980
13397SOL    HW141385   4.212   5.588   2.619  1.0706  0.1507 -0.3043
13397SOL    HW241386   4.324   5.491   2.648 -0.1013 -0.8441  1.0658
13398SOL     OW41387   4.758   0.434   6.655 -0.3880 -0.1010 -0.1549
13398SOL    HW141388   4.801   0.394   6.579 -0.0562  0.6139 -0.3544
13398SOL    HW241389   4.755   0.527   6.634  1.4395  0.4053  1.5027
13399SOL     OW41390   1.884   8.358   3.051  0.1533 -0.1301 -0.0381
13399SOL    HW141391   1.792   8.356   3.077  0.5531 -1.6259  1.4443
13399SOL    HW241392   1.896   8.276   3.003  0.9028 -0.3499  0.5211
13400SOL     OW41393   0.080   5.293   2.723 -0.0226 -0.1645 -0.6838
13400SOL    HW141394   0.072   5.383   2.691  1.1318 -0.3644 -1.6025
13400SOL    HW241395   0.021   5.290   2.798 -0.5806  1.1699 -1.0190
13401SOL     OW41396   5.722   5.485   1.202 -0.1115  0.3833 -0.3336
13401SOL    HW141397   5.634   5.457   1.175 -0.3659  0.3229  0.5382
13401SOL    HW241398   5.728   5.460   1.294  0.3122  1.6121 -0.0114
13402SOL     OW41399   3.714   1.354   8.244  0.0007 -0.0174 -0.3902
13402SOL    HW141400   3.784   1.289   8.247 -0.5484 -0.5771  1.5083
13402SOL    HW241401   3.640   1.311   8.286 -0.1937  2.0261  1.4984
13403SOL     OW41402   7.510   4.291   3.646 -0.2749  0.0962 -0.0569
13403SOL    HW141403   7.602   4.271   3.627 -0.4080 -0.0270 -0.5914
13403SOL    HW241404   7.509   4.385   3.661  0.2629 -0.1750  1.9126
13404SOL     OW41405   4.653   1.039   6.958  0.4040 -0.3854  0.3970
13404SOL    HW141406   4.687   0.954   6.930 -1.5271 -1.4167  1.0350
13404SOL    HW241407   4.607   1.072   6.881  1.3977  0.2564  0.0555
13405SOL     OW41408   2.447   5.298   0.906  0.1367  0.1779 -0.4254
13405SOL    HW141409   2.531   5.345   0.909  0.4937 -0.1570 -2.8815
13405SOL    HW241410   2.456   5.239   0.830 -2.4846  0.4385 -1.0159
13406SOL     OW41411   4.474   7.757   6.053 -0.3448 -0.1324 -0.0967
13406SOL    HW141412   4.455   7.817   5.981  1.1731 -0.5017 -0.8618
13406SOL    HW241413   4.513   7.681   6.010  1.3158 -0.0489  1.1773
13407SOL     OW41414   0.850   3.604   7.172 -0.1802  0.4912  0.1599
13407SOL    HW141415   0.937   3.641   7.179  0.3925 -0.6281 -0.6651
13407SOL    HW241416   0.849   3.530   7.233 -1.0204  1.2803  1.1546
13408SOL     OW41417   2.707   5.282   7.935  0.0255 -0.2116  0.5893
13408SOL    HW141418   2.744   5.201   7.899  0.3196  0.3283 -0.3660
13408SOL    HW241419   2.613   5.265   7.942  0.1125 -0.7042  0.5716
13409SOL     OW41420   7.148   1.045   8.291  0.3877 -0.2044  0.2420
13409SOL    HW141421   7.232   1.092   8.299  0.8102 -0.8474 -0.3172
13409SOL    HW241422   7.103   1.090   8.219  0.0756  0.3925  0.8020
13410SOL     OW41423   2.291   4.835   7.587 -0.5786 -0.7651 -0.1759
13410SOL    HW141424   2.298   4.762   7.525  0.4070 -0.9593  0.1471
13410SOL    HW241425   2.291   4.793   7.673  2.2280 -0.3478  0.1362
13411SOL     OW41426   0.725   1.148   4.244 -0.0220 -0.3925  0.0904
13411SOL    HW141427   0.711   1.235   4.208 -1.1037 -0.2180  0.9000
13411SOL    HW241428   0.662   1.093   4.197  1.1989 -0.9227 -0.9942
13412SOL     OW41429   2.218   2.447   2.100  0.5214 -0.3380  0.2404
13412SOL    HW141430   2.278   2.520   2.086  0.1447 -0.1327 -0.3441
13412SOL    HW241431   2.133   2.479   2.070  0.0340 -0.5102  1.3865
13413SOL     OW41432   1.836   3.710   7.241  0.4200  0.2330 -0.3794
13413SOL    HW141433   1.853   3.624   7.204  3.0445 -0.7832  2.7880
13413SOL    HW241434   1.759   3.698   7.297  1.2890 -0.3275  0.7229
13414SOL     OW41435   5.156   3.128   1.966 -0.1231  0.4401  0.3812
13414SOL    HW141436   5.159   3.043   2.011 -0.4177  1.0751  1.6285
13414SOL    HW241437   5.190   3.109   1.879  0.6598 -0.7864  0.9213
13415SOL     OW41438   8.328   3.394   3.293 -0.2024 -0.2004 -0.2731
13415SOL    HW141439   8.389   3.366   3.225 -0.3083  0.4118 -0.6259
13415SOL    HW241440   8.268   3.319   3.304  0.4445 -0.7016 -0.1054
13416SOL     OW41441   8.072   8.450   6.562 -0.1377  0.5961 -0.2366
13416SOL    HW141442   8.108   8.361   6.560 -2.5448 -0.4485 -0.6922
13416SOL    HW241443   8.120   8.494   6.632  0.8860 -1.1514  0.2244
13417SOL     OW41444   3.769   6.606   8.356 -0.1314  0.3818 -0.0002
13417SOL    HW141445   3.751   6.519   8.321 -1.0952  0.7925 -0.5798
13417SOL    HW241446   3.762   6.597   8.451 -0.3229 -0.1556 -0.0644
13418SOL     OW41447   5.115   6.061   3.525 -0.2341  0.0798  0.1787
13418SOL    HW141448   5.173   6.010   3.467 -0.8812 -0.8279  0.3037
13418SOL    HW241449   5.173   6.124   3.568  0.5032 -0.2079 -0.3794
13419SOL     OW41450   4.689   7.361   6.246 -0.1623 -0.0236 -0.1952
13419SOL    HW141451   4.649   7.331   6.165 -0.8693  0.2747  0.0344
13419SOL    HW241452   4.660   7.298   6.312 -0.2049  0.1503 -0.0444
13420SOL     OW41453   3.015   4.589   7.045 -0.4786 -0.4922 -0.0233
13420SOL    HW141454   3.076   4.616   6.977 -1.1649 -1.0852 -0.8971
13420SOL    HW241455   2.959   4.665   7.059  0.1327 -0.1206  0.4157
13421SOL     OW41456   8.138   2.885   1.106  0.1496 -0.1168  0.4915
13421SOL    HW141457   8.143   2.797   1.143 -1.4706 -0.0431  0.9673
13421SOL    HW241458   8.060   2.884   1.050  0.9602  0.5975 -0.7079
13422SOL     OW41459   1.497   2.279   3.861 -0.0970  0.4998 -0.0249
13422SOL    HW141460   1.542   2.286   3.777  0.5369  1.9419  0.4061
13422SOL    HW241461   1.555   2.224   3.914 -0.5711 -0.5375 -0.5562
13423SOL     OW41462   1.349   4.060   2.270  0.0235  0.1078  0.1509
13423SOL    HW141463   1.408   4.132   2.246  1.4473 -1.4627 -1.3836
13423SOL    HW241464   1.314   4.084   2.355  1.0007  2.2702 -0.0075
13424SOL     OW41465   4.648   6.630   5.964 -0.0377 -0.0407 -0.0615
13424SOL    HW141466   4.635   6.598   6.053  1.2715 -0.7794 -0.1036
13424SOL    HW241467   4.606   6.565   5.909 -1.0651  0.5428 -0.0033
13425SOL     OW41468   5.968   2.662   5.199  0.5661 -0.1908 -0.2576
13425SOL    HW141469   6.011   2.707   5.272 -0.1744 -1.1948  0.8480
13425SOL    HW241470   5.955   2.729   5.133  2.4415  0.4774 -0.0112
13426SOL     OW41471   2.143   4.774   0.022  0.2553  0.1603  0.0259
13426SOL    HW141472   2.220   4.731   0.059  1.1655  1.7398  0.0549
13426SOL    HW241473   2.146   4.751  -0.071  2.6994  2.7962 -0.6909
13427SOL     OW41474   4.970   2.354   3.290 -0.3868  0.1255  0.1146
13427SOL    HW141475   4.919   2.408   3.351  2.6660  2.0501  1.1960
13427SOL    HW241476   5.033   2.307   3.345  0.2176 -0.7701 -1.2749
13428SOL     OW41477   2.416   7.816   1.273 -0.0475 -0.0817 -0.5814
13428SOL    HW141478   2.341   7.848   1.224  0.8078  2.0809 -0.6046
13428SOL    HW241479   2.492   7.854   1.228  0.7715  2.3887  2.4907
13429SOL     OW41480   3.507   7.592   5.821 -0.1645  0.4725  0.5846
13429SOL    HW141481   3.446   7.664   5.806  0.7772  0.8933 -1.6545
13429SOL    HW241482   3.578   7.607   5.758  0.4184 -2.0290  0.5256
13430SOL     OW41483   5.000   8.605   0.699  0.4894 -0.7445  0.5716
13430SOL    HW141484   5.025   8.528   0.648 -0.4955 -0.0715 -1.0002
13430SOL    HW241485   4.920   8.578   0.745 -0.0853 -0.5562 -0.2956
13431SOL     OW41486   2.692   7.526   7.178  0.3515 -0.4981  0.5198
13431SOL    HW141487   2.753   7.593   7.209  0.3791 -0.5569  0.5927
13431SOL    HW241488   2.686   7.540   7.083 -0.4926  0.3166  0.6787
13432SOL     OW41489   7.639   7.699   8.176  0.2758 -0.2015 -0.0720
13432SOL    HW141490   7.620   7.745   8.094  2.5030  0.6832 -0.1535
13432SOL    HW241491   7.627   7.764   8.244  1.6688  0.0570 -0.0320
13433SOL     OW41492   3.664   1.701   7.989  0.5131 -0.3132  0.0344
13433SOL    HW141493   3.741   1.667   8.035  0.3100  0.0357  0.6480
13433SOL    HW241494   3.700   1.754   7.918  0.8960  1.3812  1.4158
13434SOL     OW41495   0.464   0.037   1.185 -1.2326 -0.3180  0.2545
13434SOL    HW141496   0.503  -0.047   1.211  0.5309  0.2236 -0.4753
13434SOL    HW241497   0.523   0.103   1.222 -2.5399  0.6239  0.7323
13435SOL     OW41498   0.962   0.616   2.527 -0.6415  0.2666  0.6542
13435SOL    HW141499   0.901   0.603   2.600 -1.1210 -2.2082 -0.0813
13435SOL    HW241500   1.033   0.667   2.564 -1.1539 -0.4139  2.7074
13436SOL     OW41501   4.522   8.298   2.626  0.5212 -0.2894  0.0356
13436SOL    HW141502   4.558   8.353   2.557  0.2299  0.4260  0.4457
13436SOL    HW241503   4.594   8.285   2.687  0.4378  0.1195  0.2268
13437SOL     OW41504   8.588   5.261   3.758 -0.7281  0.2123 -0.0603
13437SOL    HW141505   8.493   5.256   3.747 -0.8593  1.0209  0.5896
13437SOL    HW241506   8.615   5.171   3.774 -1.5746  0.1268  1.0780
13438SOL     OW41507   4.968   6.752   4.894  0.3390 -0.4206  0.2183
13438SOL    HW141508   5.003   6.750   4.805 -1.2032  0.3233 -0.4247
13438SOL    HW241509   5.005   6.674   4.935 -0.3936 -1.8086 -1.6358
13439SOL     OW41510   1.231   3.710   0.955  0.5783  0.1274  0.1092
13439SOL    HW141511   1.266   3.659   1.028  0.3912 -0.1337  0.0181
13439SOL    HW241512   1.137   3.716   0.973  0.7657  1.5161  0.7844
13440SOL     OW41513   0.781   1.759   8.566  0.5538  0.7219 -0.1071
13440SOL    HW141514   0.787   1.813   8.645 -2.4604 -0.2185  0.9161
13440SOL    HW241515   0.855   1.698   8.573  0.5887  0.9231  1.8184
13441SOL     OW41516   0.613   2.500   3.006  0.1335 -0.0666  0.0019
13441SOL    HW141517   0.544   2.455   3.055  0.8528  0.4711  1.5636
13441SOL    HW241518   0.614   2.457   2.921 -1.3337 -0.8638  0.3555
13442SOL     OW41519   7.006   6.659   1.143  0.3494  0.1656  0.0204
13442SOL    HW141520   7.013   6.754   1.141  1.4530  0.0888 -0.1194
13442SOL    HW241521   6.931   6.642   1.201  0.0242  1.1119 -0.1074
13443SOL     OW41522   0.349   1.886   4.881 -0.3622  0.3299  0.0334
13443SOL    HW141523   0.330   1.828   4.807  1.9040  0.2067 -0.5495
13443SOL    HW241524   0.282   1.954   4.877 -1.1738 -0.5023 -1.2061
13444SOL     OW41525   7.954   0.572   7.128  0.3566  0.2379 -0.2554
13444SOL    HW141526   7.893   0.522   7.074  1.7177  0.3596 -1.9881
13444SOL    HW241527   8.039   0.559   7.086  1.4755  0.4420  1.8215
13445SOL     OW41528   6.128   8.437   6.177 -0.5272 -0.4398  0.1228
13445SOL    HW141529   6.125   8.397   6.263  1.1673 -1.2357 -0.1471
13445SOL    HW241530   6.207   8.491   6.178 -0.6415 -0.2228 -0.8392
13446SOL     OW41531   6.747   1.633   4.768  0.6506 -0.1536 -0.3475
13446SOL    HW141532   6.746   1.713   4.821 -0.4276 -0.5286  0.2195
13446SOL    HW241533   6.824   1.643   4.711  0.1644  1.5999 -0.7692
13447SOL     OW41534   1.808   8.572   3.261  0.7753  0.0356 -0.0620
13447SOL    HW141535   1.841   8.612   3.181  1.6990  1.2724  0.8829
13447SOL    HW241536   1.859   8.492   3.271  0.4675 -0.2659 -0.8271
13448SOL     OW41537   2.765   5.539   0.745  0.0331  0.3344  0.3962
13448SOL    HW141538   2.841   5.492   0.712 -0.1612 -0.3950  0.9457
13448SOL    HW241539   2.742   5.492   0.825 -0.1169  1.4239  1.0144
13449SOL     OW41540   3.550   7.373   3.557  0.0200  0.3307  0.0316
13449SOL    HW141541   3.587   7.285   3.564  0.1945  0.2559 -1.4996
13449SOL    HW241542   3.455   7.360   3.558 -0.0170  0.3526  1.9535
13450SOL     OW41543   4.839   5.780   4.436 -0.2604  0.8698  0.0056
13450SOL    HW141544   4.877   5.865   4.461 -0.1175  0.6917  0.4040
13450SOL    HW241545   4.891   5.752   4.360 -0.5689  1.3251 -0.3759
13451SOL     OW41546   0.129   8.007   2.228 -0.3970 -0.4445  0.6043
13451SOL    HW141547   0.159   7.989   2.317 -0.2298  1.1870  0.9183
13451SOL    HW241548   0.168   8.092   2.207 -0.3879 -0.8300 -1.0550
13452SOL     OW41549   4.109   5.622   8.128 -0.7262  0.5633 -0.8439
13452SOL    HW141550   4.075   5.662   8.048  0.5555 -0.7059 -2.0778
13452SOL    HW241551   4.133   5.696   8.184 -2.5243  1.4749 -1.2093
13453SOL     OW41552   7.119   8.521   4.567  0.0994  0.3236 -0.0273
13453SOL    HW141553   7.192   8.461   4.558  0.1254  0.5984 -2.0771
13453SOL    HW241554   7.047   8.480   4.519 -0.4264  1.0943  0.0708
13454SOL     OW41555   1.624   2.354   6.944 -0.1639 -0.1077  0.0441
13454SOL    HW141556   1.555   2.295   6.912  0.3327 -0.2753 -0.7544
13454SOL    HW241557   1.652   2.402   6.866  1.2375 -0.6774  0.1753
13455SOL     OW41558   8.141   3.253   3.467  0.2081 -0.1121 -0.2618
13455SOL    HW141559   8.125   3.342   3.498 -0.4153 -0.1714 -0.3950
13455SOL    HW241560   8.196   3.214   3.535  0.5727  0.4017 -0.2530
13456SOL     OW41561   6.024   2.733   4.214  0.2132 -0.0733 -0.1384
13456SOL    HW141562   6.040   2.650   4.169  0.4899  0.1019 -0.3655
13456SOL    HW241563   5.930   2.734   4.230  0.0833 -0.0563 -0.8714
13457SOL     OW41564   0.468   6.967   6.496 -0.8305  0.5841  0.0688
13457SOL    HW141565   0.450   7.038   6.557 -2.6470 -1.3068  1.8917
13457SOL    HW241566   0.507   6.898   6.549  0.5703  0.0292 -1.5778
13458SOL     OW41567   3.978   3.807   6.932 -0.4862 -0.1677 -0.5908
13458SOL    HW141568   4.064   3.794   6.971 -1.3278  0.0475  1.4965
13458SOL    HW241569   3.944   3.719   6.917 -0.1339 -0.2556 -0.8659
13459SOL     OW41570   2.933   6.210   5.889 -0.5184 -0.2671  0.2873
13459SOL    HW141571   3.012   6.242   5.845 -1.6194  0.8380 -0.9772
13459SOL    HW241572   2.865   6.216   5.823 -1.5527 -1.8110  1.1651
13460SOL     OW41573   7.847   0.702   7.574 -0.3044 -0.1362  0.2457
13460SOL    HW141574   7.763   0.708   7.620 -0.2891 -1.6507  0.5256
13460SOL    HW241575   7.903   0.653   7.635  0.5563  0.2208 -0.2524
13461SOL     OW41576   1.812   1.271   6.513 -0.1096 -0.7935 -0.0212
13461SOL    HW141577   1.888   1.284   6.457 -0.5000  0.8836 -0.2215
13461SOL    HW241578   1.821   1.337   6.581 -1.2534 -0.7358  0.0984
13462SOL     OW41579   2.928   0.788   5.097  0.2109  0.5503  0.1885
13462SOL    HW141580   2.933   0.866   5.153  1.7772 -0.0218  0.8911
13462SOL    HW241581   2.919   0.823   5.009  0.9491  1.5545  0.4892
13463SOL     OW41582   1.776   4.785   0.508 -0.3731 -0.1764  0.1883
13463SOL    HW141583   1.812   4.846   0.572 -0.5730  1.1081 -0.8893
13463SOL    HW241584   1.851   4.733   0.480 -0.0519  0.0679  0.5784
13464SOL     OW41585   7.131   1.742   2.608  0.0259 -0.0724 -0.0331
13464SOL    HW141586   7.101   1.683   2.678 -2.1111 -0.1946 -0.9812
13464SOL    HW241587   7.066   1.731   2.539  1.7539  0.5146 -1.8131
13465SOL     OW41588   4.896   3.119   4.468 -0.3961  0.8966  0.2943
13465SOL    HW141589   4.813   3.160   4.496 -1.0367 -0.7327  0.8950
13465SOL    HW241590   4.947   3.112   4.549 -0.6449 -0.2546  0.3586
13466SOL     OW41591   8.543   5.556   2.515 -0.0646 -0.7446  0.1665
13466SOL    HW141592   8.615   5.518   2.465  0.6413  1.7259 -0.8268
13466SOL    HW241593   8.518   5.634   2.467 -3.9603 -1.8160  0.0764
13467SOL     OW41594   0.141   6.356   3.524  0.1055 -0.1021  0.0710
13467SOL    HW141595   0.112   6.413   3.596 -0.1523 -0.6343  0.3964
13467SOL    HW241596   0.227   6.325   3.551 -0.3407 -0.9754  0.5711
13468SOL     OW41597   4.295   8.408   0.586 -0.1268 -0.3250  0.0183
13468SOL    HW141598   4.287   8.338   0.521  0.1028  0.8327 -1.2872
13468SOL    HW241599   4.368   8.461   0.555  0.2551  0.0287  1.4583
13469SOL     OW41600   3.159   6.298   6.618 -1.0026 -0.6543  0.1708
13469SOL    HW141601   3.204   6.376   6.654  1.4496 -2.6137  1.7104
13469SOL    HW241602   3.114   6.330   6.540 -0.1768  2.3179  0.7810
13470SOL     OW41603   4.771   0.618   8.341  0.0885 -0.0030 -0.0246
13470SOL    HW141604   4.723   0.545   8.301  1.3963 -0.3578 -1.0219
13470SOL    HW241605   4.705   0.686   8.353 -0.5276 -0.1563 -2.1232
13471SOL     OW41606   5.869   7.013   3.649 -0.5750 -0.0039 -0.0684
13471SOL    HW141607   5.961   6.991   3.667 -0.8109 -1.0272 -0.0210
13471SOL    HW241608   5.841   7.063   3.726  0.0480  0.6615 -0.2665
13472SOL     OW41609   7.655   2.312   1.493 -0.5108  0.2175 -0.2990
13472SOL    HW141610   7.563   2.322   1.469 -0.3582  1.2611 -0.5307
13472SOL    HW241611   7.701   2.295   1.411 -0.3357  1.1093 -0.4072
13473SOL     OW41612   5.624   3.909   2.859  1.5104 -0.0764 -0.4578
13473SOL    HW141613   5.645   4.001   2.874  2.5731 -0.0871 -1.7155
13473SOL    HW241614   5.640   3.867   2.944  2.3360  0.6719 -0.2275
13474SOL     OW41615   7.923   3.998   1.066 -0.5208 -0.4633  0.0605
13474SOL    HW141616   7.832   3.985   1.039 -0.7427  0.8457  0.1127
13474SOL    HW241617   7.923   4.081   1.114  0.5143 -0.9790  1.0159
13475SOL     OW41618   1.170   8.594   0.692  0.1801 -0.0985  0.2220
13475SOL    HW141619   1.208   8.603   0.605 -0.1247  0.1333  0.1134
13475SOL    HW241620   1.241   8.619   0.752  0.2048  0.3290  0.0190
13476SOL     OW41621   1.051   6.468   8.027  0.2722 -0.1571 -0.6963
13476SOL    HW141622   1.071   6.545   8.079 -1.8891  1.2411 -1.7710
13476SOL    HW241623   1.042   6.397   8.091  2.4568  0.3879  0.2910
13477SOL     OW41624   4.136   7.749   3.143 -0.5959 -0.2781  0.1221
13477SOL    HW141625   4.050   7.707   3.147 -0.3736 -0.6486  1.7276
13477SOL    HW241626   4.128   7.815   3.075 -0.9973 -2.8197 -2.4806
13478SOL     OW41627   6.023   3.491   0.458  0.4293  0.1419  0.0856
13478SOL    HW141628   5.979   3.574   0.440 -1.1400 -0.4822  0.8068
13478SOL    HW241629   6.080   3.477   0.382 -1.5984  0.3822 -1.5662
13479SOL     OW41630   6.954   4.870   0.624 -0.5202  0.0093 -0.4182
13479SOL    HW141631   7.023   4.916   0.671 -2.6991  1.4045  1.6405
13479SOL    HW241632   6.907   4.939   0.576 -1.6537 -0.5857 -0.2007
13480SOL     OW41633   7.149   3.528   1.514 -0.6256  0.6102  0.4453
13480SOL    HW141634   7.142   3.459   1.448 -1.0574  1.2517 -0.1904
13480SOL    HW241635   7.062   3.533   1.553 -0.7722  1.2313  0.0419
13481SOL     OW41636   7.437   5.373   8.578  0.1102 -0.2653  0.6968
13481SOL    HW141637   7.404   5.297   8.625  0.8048 -0.1439  1.3987
13481SOL    HW241638   7.494   5.337   8.510 -0.8217 -0.4361 -0.0220
13482SOL     OW41639   2.749   1.669   4.172  0.1984  0.5669  0.4718
13482SOL    HW141640   2.658   1.658   4.142 -0.0801  1.4947  0.9288
13482SOL    HW241641   2.785   1.580   4.173 -0.3792  0.2924 -0.7217
13483SOL     OW41642   5.274   4.850   6.006 -0.6013  0.1315  0.0928
13483SOL    HW141643   5.265   4.901   6.087  0.0267  1.0507 -0.4041
13483SOL    HW241644   5.338   4.898   5.954  0.3638 -1.4034 -0.2184
13484SOL     OW41645   2.217   1.349   2.099  0.2691 -0.1717  0.1292
13484SOL    HW141646   2.243   1.386   2.183 -0.8744 -0.1046  0.4814
13484SOL    HW241647   2.157   1.278   2.122 -0.5242  0.2312 -0.6364
13485SOL     OW41648   7.035   5.539   6.110 -0.5844 -0.4268  0.1643
13485SOL    HW141649   7.104   5.474   6.099 -0.5170 -0.4578  0.7087
13485SOL    HW241650   6.971   5.518   6.042 -0.0159 -0.3344 -0.4107
13486SOL     OW41651   0.947   3.344   4.087  0.2374  0.2772  1.1839
13486SOL    HW141652   0.973   3.372   4.000 -0.6750 -1.1714  0.4059
13486SOL    HW241653   1.011   3.277   4.111  0.4269  0.6004  1.5959
13487SOL     OW41654   3.348   3.619   2.773  0.4669  0.1824  0.0032
13487SOL    HW141655   3.344   3.665   2.857  1.1992  1.1911 -0.4879
13487SOL    HW241656   3.434   3.641   2.738  0.6937 -1.3093 -0.4270
13488SOL     OW41657   8.224   0.027   0.354 -0.2955 -0.0165  0.0767
13488SOL    HW141658   8.150   0.078   0.386 -0.8948 -0.3250 -0.7587
13488SOL    HW241659   8.268  -0.005   0.433 -0.4940  0.9558  0.5891
13489SOL     OW41660   0.484   6.044   3.736 -0.0106  0.6205 -0.3840
13489SOL    HW141661   0.469   5.995   3.817  0.8313  0.7885 -0.1051
13489SOL    HW241662   0.577   6.069   3.741  0.7560 -1.4342 -2.5458
13490SOL     OW41663   2.360   5.099   6.765  0.1987 -0.7906  0.1856
13490SOL    HW141664   2.371   5.177   6.819  2.5175 -0.4328 -0.6909
13490SOL    HW241665   2.289   5.120   6.705  0.2074  0.2980  0.5449
13491SOL     OW41666   3.289   0.467   5.390  0.0624  0.2189  0.0361
13491SOL    HW141667   3.246   0.391   5.430  0.4061  0.8107  1.6165
13491SOL    HW241668   3.381   0.443   5.388  0.0576  0.2328 -0.3291
13492SOL     OW41669   0.697   4.294   0.671  0.3536  0.4281 -0.1494
13492SOL    HW141670   0.606   4.264   0.664  0.4325  0.4446 -1.6667
13492SOL    HW241671   0.691   4.381   0.710 -0.5414  1.4759 -2.4320
13493SOL     OW41672   3.687   7.721   1.721  0.1224 -0.8622 -0.3202
13493SOL    HW141673   3.747   7.681   1.784  0.1588 -2.4580 -1.3026
13493SOL    HW241674   3.701   7.815   1.731 -1.3445 -0.8747  3.4771
13494SOL     OW41675   0.088   0.016   0.536 -0.8050  0.3006  0.1665
13494SOL    HW141676   0.139   0.072   0.595 -0.6694 -0.2138  0.5492
13494SOL    HW241677   0.105  -0.073   0.567 -0.8002  0.0226 -0.5997
13495SOL     OW41678   7.340   2.175   1.103  0.0714 -0.3060 -0.0590
13495SOL    HW141679   7.274   2.245   1.113 -0.0570  0.1814 -3.1774
13495SOL    HW241680   7.422   2.222   1.087  0.1596 -0.8363 -1.2542
13496SOL     OW41681   4.628   3.324   1.087 -0.5188  0.1710 -0.0890
13496SOL    HW141682   4.665   3.236   1.093  0.3812  0.6202  1.3207
13496SOL    HW241683   4.533   3.310   1.088 -0.4088 -0.7473  1.4712
13497SOL     OW41684   4.802   0.645   5.004 -0.3022 -0.2519  0.2785
13497SOL    HW141685   4.707   0.635   5.007 -0.1618 -1.5981  2.4393
13497SOL    HW241686   4.824   0.690   5.085  0.9471 -0.3052 -0.0021
13498SOL     OW41687   5.136   4.397   2.194  0.3138 -0.1530  0.9759
13498SOL    HW141688   5.228   4.370   2.197  0.9749  1.6544 -0.4654
13498SOL    HW241689   5.135   4.468   2.129 -1.8020  1.0336  2.2116
13499SOL     OW41690   0.844   8.362   7.873  0.7386  0.1984  0.1684
13499SOL    HW141691   0.873   8.271   7.879 -0.3256 -0.1668 -0.0141
13499SOL    HW241692   0.925   8.413   7.873  1.3357 -0.7284  0.5544
13500SOL     OW41693   3.341   4.854   6.989 -0.2172  0.0526 -0.8677
13500SOL    HW141694   3.381   4.809   7.064  0.7632  0.2490 -1.2496
13500SOL    HW241695   3.289   4.925   7.028  0.7711  0.5329 -0.3768
13501SOL     OW41696   4.382   6.535   5.178  0.1628  0.2654  0.4535
13501SOL    HW141697   4.413   6.459   5.128  2.1541  0.2527  1.6309
13501SOL    HW241698   4.295   6.508   5.210  0.0103 -0.7442 -0.7291
13502SOL     OW41699   2.304   0.922   8.533 -0.2653  0.4011  0.0606
13502SOL    HW141700   2.335   0.833   8.551 -1.1100  0.3132  1.2105
13502SOL    HW241701   2.264   0.916   8.446  1.0154  0.0269 -0.5200
13503SOL     OW41702   7.995   7.899   6.898 -0.0137 -0.1161  0.1770
13503SOL    HW141703   7.931   7.935   6.961  0.5211 -0.7478  1.1040
13503SOL    HW241704   8.079   7.905   6.943  0.7002  1.1508 -1.2187
13504SOL     OW41705   7.869   5.449   0.558 -0.3145 -0.1186  0.2307
13504SOL    HW141706   7.881   5.543   0.568 -0.2749  0.1051 -1.5782
13504SOL    HW241707   7.830   5.420   0.641 -0.7008  1.5467  0.6509
13505SOL     OW41708   0.795   5.552   7.066 -0.4316 -0.2133 -0.8367
13505SOL    HW141709   0.840   5.632   7.096 -0.1091 -0.5740 -0.3410
13505SOL    HW241710   0.774   5.570   6.975  0.6832 -0.0026 -1.0754
13506SOL     OW41711   1.555   2.282   4.357 -0.1019 -0.2759 -0.0490
13506SOL    HW141712   1.537   2.196   4.395  0.5554 -0.4550 -0.1437
13506SOL    HW241713   1.578   2.265   4.266  1.6352 -0.1638  0.3470
13507SOL     OW41714   4.389   3.903   3.378 -0.1648 -0.1883 -0.2917
13507SOL    HW141715   4.308   3.886   3.427 -0.7316  0.4294 -1.0001
13507SOL    HW241716   4.437   3.964   3.434 -0.7353  0.3828 -0.4044
13508SOL     OW41717   5.212   7.985   1.946 -0.0559 -0.0803  0.7682
13508SOL    HW141718   5.279   8.053   1.961  0.6920 -0.7929  0.7394
13508SOL    HW241719   5.228   7.955   1.857 -0.1339 -0.5651  0.9166
13509SOL     OW41720   2.151   4.950   1.992  0.6773 -0.1913  0.4039
13509SOL    HW141721   2.118   4.978   1.906 -0.5210 -0.4941  0.7410
13509SOL    HW241722   2.219   5.014   2.013  1.2771 -0.3512 -0.9419
13510SOL     OW41723   6.271   2.803   7.105  0.0913  0.4171  0.1675
13510SOL    HW141724   6.233   2.883   7.140 -2.1749 -0.2152 -0.6606
13510SOL    HW241725   6.243   2.734   7.166  1.4050  0.1402  0.4789
13511SOL     OW41726   6.605   2.287   6.904  0.1112  0.6780  0.2685
13511SOL    HW141727   6.638   2.235   6.977  0.0403 -0.4581 -0.4761
13511SOL    HW241728   6.581   2.222   6.838 -1.3490  1.5881 -0.1449
13512SOL     OW41729   6.718   1.686   8.430  0.3768 -0.0684 -0.7268
13512SOL    HW141730   6.668   1.705   8.509 -0.1712 -1.9048 -0.5776
13512SOL    HW241731   6.692   1.753   8.367 -1.7513 -0.5272 -0.4100
13513SOL     OW41732   5.955   7.422   5.009 -0.2564  0.2381 -0.5123
13513SOL    HW141733   6.044   7.390   4.998 -0.4841 -0.2966 -0.8588
13513SOL    HW241734   5.953   7.507   4.965 -0.0838 -0.0333 -1.0388
13514SOL     OW41735   6.155   5.635   0.067 -0.5040  1.0546 -0.2356
13514SOL    HW141736   6.105   5.553   0.071  1.0840  0.0115 -0.5514
13514SOL    HW241737   6.174   5.655   0.159 -0.4830  0.7857 -0.1793
13515SOL     OW41738   3.738   8.603   3.899  0.1118  0.0414 -0.7050
13515SOL    HW141739   3.709   8.679   3.848  1.2154  0.8197 -0.2175
13515SOL    HW241740   3.670   8.537   3.884 -2.1172  1.8661  0.6332
13516SOL     OW41741   5.688   3.501   6.233  0.5107  0.1655 -0.5208
13516SOL    HW141742   5.770   3.465   6.201  0.2213 -0.1132 -0.9595
13516SOL    HW241743   5.697   3.596   6.222  0.8611  0.1526 -0.3433
13517SOL     OW41744   7.159   7.237   1.181 -0.1314  0.2618  0.4531
13517SOL    HW141745   7.073   7.223   1.219 -0.9763  0.0120 -1.4249
13517SOL    HW241746   7.186   7.151   1.149  0.0158  0.6356 -0.4793
13518SOL     OW41747   1.003   0.838   4.332  0.1137 -0.1049 -0.4626
13518SOL    HW141748   1.046   0.835   4.418 -0.2309  1.4433 -0.2024
13518SOL    HW241749   0.958   0.753   4.325  3.7979 -2.1897 -1.1430
13519SOL     OW41750   3.913   5.959   6.981 -0.1060 -0.4713  0.1218
13519SOL    HW141751   3.853   5.991   7.048  1.0734 -0.3540  1.1698
13519SOL    HW241752   3.912   5.863   6.990  1.2864 -0.4011  1.4892
13520SOL     OW41753   0.916   3.487   6.814 -0.0684 -0.6057 -0.0573
13520SOL    HW141754   0.885   3.557   6.757  1.5431 -1.2279 -1.7678
13520SOL    HW241755   1.004   3.513   6.839 -0.7291 -0.3596  2.2134
13521SOL     OW41756   7.508   7.049   5.249 -0.4086  0.6167 -0.4697
13521SOL    HW141757   7.422   7.007   5.235  0.8768 -1.5133 -3.0581
13521SOL    HW241758   7.503   7.131   5.200 -0.7802  0.1574 -1.2237
13522SOL     OW41759   5.132   2.984   4.335 -0.2263  0.5600  0.0335
13522SOL    HW141760   5.042   3.016   4.344 -1.1439 -1.0191 -2.3590
13522SOL    HW241761   5.178   3.018   4.412 -2.3820  2.9556  0.3893
13523SOL     OW41762   6.312   8.079   3.511 -0.2339 -0.3326  0.1504
13523SOL    HW141763   6.370   8.059   3.438  0.2629  1.8103 -0.1033
13523SOL    HW241764   6.224   8.071   3.474  0.0113  0.8557 -0.7673
13524SOL     OW41765   6.315   2.940   0.647 -0.4542  0.3655 -0.7758
13524SOL    HW141766   6.397   2.988   0.656 -2.1671  3.4729 -0.2855
13524SOL    HW241767   6.271   2.950   0.731 -1.6092 -0.7394 -1.2001
13525SOL     OW41768   4.327   4.343   5.291  0.2833 -0.4112  0.0597
13525SOL    HW141769   4.394   4.331   5.223 -1.5233 -2.3111 -1.5382
13525SOL    HW241770   4.328   4.437   5.309  2.5508 -0.2118 -0.7345
13526SOL     OW41771   6.634   0.870   8.557 -0.1889 -0.0852 -0.2422
13526SOL    HW141772   6.553   0.913   8.532 -0.7191 -0.7278  0.3256
13526SOL    HW241773   6.637   0.790   8.505 -0.5818 -0.7073  0.6561
13527SOL     OW41774   5.416   2.644   3.007 -0.0667  0.0111 -0.3108
13527SOL    HW141775   5.469   2.567   2.985  1.3353  0.8678 -0.0599
13527SOL    HW241776   5.344   2.610   3.060  1.2974 -0.9618  0.9834
13528SOL     OW41777   3.663   0.477   3.587  0.1874  0.2625 -0.1619
13528SOL    HW141778   3.606   0.549   3.558  1.8433  2.5778  1.9223
13528SOL    HW241779   3.745   0.491   3.538  0.5504 -0.1359  0.3263
13529SOL     OW41780   7.612   7.920   5.450  0.4197  0.4531  0.2915
13529SOL    HW141781   7.651   7.850   5.504  1.2323 -0.4051 -1.3200
13529SOL    HW241782   7.674   7.992   5.456  0.1856  0.5962  1.0097
13530SOL     OW41783   2.859   1.322   4.351  0.8815  0.5428 -0.4409
13530SOL    HW141784   2.853   1.351   4.260  0.0568  0.1745 -0.5183
13530SOL    HW241785   2.863   1.402   4.402 -0.4317  0.8004 -0.7043
13531SOL     OW41786   3.002   8.535   3.600 -0.3044  0.1992  0.7922
13531SOL    HW141787   3.091   8.527   3.635 -0.2684 -0.6414  0.5228
13531SOL    HW241788   2.980   8.628   3.612  0.9636  0.6301  0.0246
13532SOL     OW41789   0.306   1.469   6.433  0.4753 -0.3668 -0.3560
13532SOL    HW141790   0.324   1.496   6.343 -2.0644  0.7289 -0.5964
13532SOL    HW241791   0.237   1.404   6.425  0.0019 -0.0332  0.8247
13533SOL     OW41792   6.747   7.177   7.799  0.1785  0.2358  0.0982
13533SOL    HW141793   6.695   7.220   7.732  0.5822  0.8730  0.1901
13533SOL    HW241794   6.682   7.132   7.854 -0.5334  2.8947  1.5783
13534SOL     OW41795   6.970   3.817   1.866 -0.6817  0.2293 -0.0121
13534SOL    HW141796   6.966   3.836   1.960 -0.8840 -0.0813  0.0464
13534SOL    HW241797   6.995   3.724   1.862 -1.1867  0.1003 -0.2526
13535SOL     OW41798   2.067   6.666   8.072  0.0459  0.0576  0.4799
13535SOL    HW141799   2.134   6.714   8.023 -0.4077  0.0123 -0.1980
13535SOL    HW241800   1.992   6.725   8.074  0.3116  0.3782  1.8164
13536SOL     OW41801   1.616   7.414   7.717 -0.1327  0.0278  0.4637
13536SOL    HW141802   1.651   7.500   7.697 -3.8075  1.8430  0.8866
13536SOL    HW241803   1.535   7.409   7.667 -1.2370 -2.1341  2.2721
13537SOL     OW41804   0.471   5.288   6.348  0.1380  0.0396 -0.0801
13537SOL    HW141805   0.461   5.194   6.336 -1.1483 -0.1129  1.8817
13537SOL    HW241806   0.483   5.322   6.259 -1.2510 -1.7466 -1.0085
13538SOL     OW41807   8.595   5.752   6.685  0.7153 -0.5914  0.4286
13538SOL    HW141808   8.583   5.657   6.683  1.4075 -0.6761 -0.5689
13538SOL    HW241809   8.568   5.778   6.773 -2.3919 -1.3089 -0.1729
13539SOL     OW41810   0.219   3.893   1.893  0.4770  0.7042 -0.0528
13539SOL    HW141811   0.225   3.840   1.813 -2.4047  0.2599 -0.0599
13539SOL    HW241812   0.278   3.849   1.954 -0.2786 -1.3414 -0.7099
13540SOL     OW41813   1.269   2.305   7.541 -0.2941  0.4977 -0.2613
13540SOL    HW141814   1.261   2.397   7.516 -1.2159  0.5214  0.0698
13540SOL    HW241815   1.199   2.292   7.605  2.1731  0.5594  2.7102
13541SOL     OW41816   1.118   1.581   4.768  0.1263 -0.0354 -0.2678
13541SOL    HW141817   1.030   1.567   4.805 -0.1623  0.7010 -0.6536
13541SOL    HW241818   1.114   1.668   4.729 -0.1472 -1.3607 -3.5766
13542SOL     OW41819   7.857   5.054   6.140 -0.5879  0.4523  0.2133
13542SOL    HW141820   7.871   5.098   6.224 -0.7580  0.8135  0.0582
13542SOL    HW241821   7.942   5.056   6.097 -0.1033 -1.1425  1.0208
13543SOL     OW41822   3.049   3.060   7.260 -0.1410 -0.1515 -0.3287
13543SOL    HW141823   3.049   3.153   7.282 -0.0481 -0.4041  0.8048
13543SOL    HW241824   2.958   3.041   7.237 -0.3813  0.0174  0.4323
13544SOL     OW41825   0.248   4.739   2.477 -0.3198  0.0386  0.1216
13544SOL    HW141826   0.286   4.810   2.427  0.2857  1.3589  2.3256
13544SOL    HW241827   0.170   4.777   2.517 -0.7696 -0.9611  0.2326
13545SOL     OW41828   4.962   0.272   8.374  0.0715 -0.0010 -0.2473
13545SOL    HW141829   4.982   0.276   8.280  0.6798 -1.4177 -0.2022
13545SOL    HW241830   5.044   0.297   8.417 -0.2340  0.7353 -0.0950
13546SOL     OW41831   6.743   1.820   6.040  0.1208 -0.0375  0.0973
13546SOL    HW141832   6.802   1.750   6.011 -2.7557 -2.6436 -0.0003
13546SOL    HW241833   6.703   1.852   5.960  0.2378  0.6009  0.2925
13547SOL     OW41834   2.744   8.515   6.007 -0.3993  0.8171 -0.0737
13547SOL    HW141835   2.805   8.476   6.069 -0.8317  0.0058 -0.1560
13547SOL    HW241836   2.706   8.589   6.055 -1.1744 -0.1540  0.8604
13548SOL     OW41837   4.476   8.420   6.161  0.1661  0.2103  0.0301
13548SOL    HW141838   4.564   8.412   6.197 -0.6634 -2.5450  1.8407
13548SOL    HW241839   4.481   8.493   6.099  3.4886  0.6200  0.5991
13549SOL     OW41840   6.210   4.818   6.609 -0.1895 -0.4783  0.5321
13549SOL    HW141841   6.172   4.847   6.692  1.5557  1.2922  0.7717
13549SOL    HW241842   6.232   4.726   6.624  0.1862 -0.1548  2.0727
13550SOL     OW41843   4.525   1.667   4.646 -0.2579  0.5667 -0.5598
13550SOL    HW141844   4.451   1.719   4.615 -0.1640  1.0745  0.0325
13550SOL    HW241845   4.598   1.695   4.591 -0.5628 -0.1660 -1.3562
13551SOL     OW41846   1.071   3.964   4.614 -0.4389  0.5119  0.2781
13551SOL    HW141847   1.150   4.016   4.599 -0.9063  0.9413 -0.8919
13551SOL    HW241848   1.101   3.888   4.663  0.5719  1.0223  0.4856
13552SOL     OW41849   6.898   4.984   2.346 -0.3243 -0.0212  0.2616
13552SOL    HW141850   6.929   5.048   2.410  1.7695  1.1157 -1.7624
13552SOL    HW241851   6.802   4.995   2.346 -0.0550  3.1736 -0.0080
13553SOL     OW41852   5.204   5.983   7.497  0.1914  0.7929 -0.0692
13553SOL    HW141853   5.202   6.014   7.407  0.2213  0.2732 -0.2567
13553SOL    HW241854   5.118   5.943   7.511  0.6905 -0.4607 -0.3721
13554SOL     OW41855   0.663   7.076   5.537 -0.2768 -0.0475 -0.3649
13554SOL    HW141856   0.638   7.021   5.464 -1.3198 -0.9968  0.6634
13554SOL    HW241857   0.748   7.042   5.566 -0.6190 -0.7301 -0.1373
13555SOL     OW41858   2.962   2.325   7.634 -0.0887 -0.2021 -0.6370
13555SOL    HW141859   2.949   2.411   7.674  0.3142 -0.0999 -0.7207
13555SOL    HW241860   3.016   2.343   7.557  1.1381 -0.6885  0.0858
13556SOL     OW41861   3.661   8.035   4.003 -0.2401 -0.3035 -0.3849
13556SOL    HW141862   3.701   7.974   3.941  0.7510 -1.9176  1.6916
13556SOL    HW241863   3.614   7.978   4.065 -1.4572  1.2464  0.1785
13557SOL     OW41864   4.773   3.808   1.215  0.0393  0.0678  0.4407
13557SOL    HW141865   4.721   3.735   1.182 -1.8178  1.0806  1.0033
13557SOL    HW241866   4.782   3.790   1.308 -0.6019  0.6361  0.6195
13558SOL     OW41867   1.371   2.903   0.285 -0.0873  0.3659  0.0271
13558SOL    HW141868   1.440   2.957   0.248  0.0028 -0.3461 -0.8901
13558SOL    HW241869   1.391   2.814   0.256 -1.6165  0.1973 -0.6298
13559SOL     OW41870   1.499   6.512   5.854 -0.7831  0.6522  0.1945
13559SOL    HW141871   1.403   6.510   5.849 -0.8958  1.5007  1.3862
13559SOL    HW241872   1.527   6.553   5.772 -1.5568  1.9280  0.5337
13560SOL     OW41873   6.933   0.384   1.821 -0.1788  0.3890 -0.5151
13560SOL    HW141874   6.954   0.477   1.808 -1.8657  0.7808 -0.7590
13560SOL    HW241875   6.846   0.374   1.782 -0.8685 -0.8446  1.2139
13561SOL     OW41876   8.259   4.389   1.623  0.7420 -0.2534  0.1908
13561SOL    HW141877   8.295   4.424   1.704  0.1747 -2.3798  1.4177
13561SOL    HW241878   8.296   4.302   1.615 -0.2349 -0.5833 -1.1520
13562SOL     OW41879   0.365   2.910   0.391  0.1403  0.6664 -0.6858
13562SOL    HW141880   0.379   2.885   0.482 -0.1199 -0.1012 -0.8483
13562SOL    HW241881   0.392   2.833   0.341  1.5667  1.5451 -1.3438
13563SOL     OW41882   1.531   4.905   3.457 -0.2805  0.0223 -0.9027
13563SOL    HW141883   1.602   4.856   3.499 -1.5353 -0.3934  0.8307
13563SOL    HW241884   1.533   4.991   3.498 -3.2640 -1.2236  2.3315
13564SOL     OW41885   2.375   7.246   4.011 -0.2393  0.1160  0.4557
13564SOL    HW141886   2.342   7.157   4.007  1.6400 -0.6145  0.2001
13564SOL    HW241887   2.432   7.247   4.088 -0.9688  1.3733  1.0098
13565SOL     OW41888   1.108   6.852   1.424  0.4215 -0.1636  0.0745
13565SOL    HW141889   1.127   6.916   1.355  0.9124  0.9245  1.1588
13565SOL    HW241890   1.039   6.894   1.476  1.2403 -0.1708  1.2077
13566SOL     OW41891   6.240   0.771   0.955  0.3184 -0.2386 -0.0169
13566SOL    HW141892   6.222   0.814   1.038 -1.1939 -1.2176  0.2044
13566SOL    HW241893   6.188   0.820   0.891  0.1898 -0.4924 -0.1072
13567SOL     OW41894   3.223   6.143   0.600  0.0078 -0.0629 -0.1103
13567SOL    HW141895   3.145   6.197   0.595  0.8985  1.5982  2.1022
13567SOL    HW241896   3.241   6.117   0.510  0.5148  4.8681 -1.7238
13568SOL     OW41897   6.089   2.574   1.025 -0.0715  0.4901  0.4598
13568SOL    HW141898   6.095   2.601   1.117 -0.1424  0.2943  0.5233
13568SOL    HW241899   6.024   2.504   1.025  1.3817 -0.9404  0.5999
13569SOL     OW41900   7.131   3.519   1.852  0.4802 -0.0814  0.3897
13569SOL    HW141901   7.150   3.518   1.946  1.0904  1.5722  0.3206
13569SOL    HW241902   7.218   3.523   1.811  0.1880  1.0935 -0.1598
13570SOL     OW41903   8.457   2.434   5.292 -0.4677 -0.3615 -0.0952
13570SOL    HW141904   8.401   2.426   5.369  0.2997 -0.2817  0.4717
13570SOL    HW241905   8.458   2.528   5.273 -0.1324 -0.3071  0.1890
13571SOL     OW41906   2.610   4.174   1.924  0.0834 -0.3434 -0.8120
13571SOL    HW141907   2.518   4.179   1.950  0.2005  1.7078 -0.6152
13571SOL    HW241908   2.653   4.129   1.997 -0.9312 -2.6506 -1.5549
13572SOL     OW41909   1.761   2.769   5.718 -0.5424 -0.0736 -0.0782
13572SOL    HW141910   1.760   2.682   5.758 -1.6021 -0.3437 -0.6315
13572SOL    HW241911   1.738   2.829   5.790  1.1279 -0.1198  0.5265
13573SOL     OW41912   6.806   8.066   1.759  0.7004  0.1983 -0.0008
13573SOL    HW141913   6.779   8.158   1.754  1.5165  0.4354 -0.0613
13573SOL    HW241914   6.723   8.018   1.768  0.0493  0.7550 -2.1797
13574SOL     OW41915   7.295   4.888   7.926  0.1752  0.1158 -0.6235
13574SOL    HW141916   7.373   4.944   7.928  0.4620 -0.2460 -1.4096
13574SOL    HW241917   7.225   4.944   7.961  0.6411  0.6637 -0.5536
13575SOL     OW41918   7.793   7.599   2.233 -0.2721  0.0485 -0.5306
13575SOL    HW141919   7.741   7.526   2.265  0.1956 -0.7108 -1.4584
13575SOL    HW241920   7.860   7.612   2.300 -1.1267  0.4887  0.2616
13576SOL     OW41921   4.038   3.240   1.396  0.6904 -0.3179 -0.3890
13576SOL    HW141922   4.087   3.163   1.424  2.0097  0.7926  0.4485
13576SOL    HW241923   4.100   3.312   1.402 -1.0975  1.2088  1.0216
13577SOL     OW41924   3.371   5.668   2.374 -0.3227  0.7528 -0.1757
13577SOL    HW141925   3.291   5.620   2.395 -0.3844  0.4006 -1.1784
13577SOL    HW241926   3.390   5.646   2.283  2.9155 -2.0992  0.9749
13578SOL     OW41927   7.394   8.066   1.673  0.3559 -0.1402  0.0423
13578SOL    HW141928   7.408   8.131   1.604  0.2759 -0.4073 -0.2304
13578SOL    HW241929   7.299   8.064   1.683  0.3600 -0.1958  0.0690
13579SOL     OW41930   5.809   1.101   8.598  0.1445  0.3510 -0.5100
13579SOL    HW141931   5.823   1.188   8.562 -0.0863  0.0335 -1.3951
13579SOL    HW241932   5.714   1.095   8.609  0.2277  0.5225  0.3746
13580SOL     OW41933   1.293   7.690   7.490 -0.6163  0.3205 -0.0599
13580SOL    HW141934   1.381   7.652   7.490 -1.6078 -2.2748  1.2131
13580SOL    HW241935   1.250   7.648   7.565 -2.9531  1.4911 -0.6652
13581SOL     OW41936   6.274   2.110   4.449  0.4147  0.3704 -0.2090
13581SOL    HW141937   6.318   2.163   4.516 -0.8562  1.7772 -0.4404
13581SOL    HW241938   6.340   2.048   4.420  0.9708 -0.4232  2.4789
13582SOL     OW41939   5.077   1.025   5.330 -0.6795 -0.5258  0.0147
13582SOL    HW141940   5.126   1.030   5.412  0.2778 -0.9259 -0.5271
13582SOL    HW241941   5.109   0.946   5.286 -1.9954 -0.9566 -0.2400
13583SOL     OW41942   7.338   0.467   5.381 -0.2869 -0.3723  0.1566
13583SOL    HW141943   7.426   0.455   5.344  0.3936  0.2333  1.4753
13583SOL    HW241944   7.330   0.562   5.391  0.4161 -0.5330  3.3690
13584SOL     OW41945   2.364   6.451   4.940  0.0850  0.2872 -0.1032
13584SOL    HW141946   2.345   6.468   5.032 -0.8489 -0.2673 -0.1797
13584SOL    HW241947   2.365   6.537   4.898  3.3497  0.8793  0.8885
13585SOL     OW41948   5.236   2.532   3.726 -0.1810  0.6180 -0.3437
13585SOL    HW141949   5.305   2.468   3.738 -0.8329  0.0487  0.4052
13585SOL    HW241950   5.201   2.548   3.813 -3.1129 -1.4943 -0.9622
13586SOL     OW41951   8.476   0.318   7.553 -0.0896 -0.5687  0.2641
13586SOL    HW141952   8.544   0.381   7.533  2.3446 -2.4781  1.8691
13586SOL    HW241953   8.471   0.262   7.476  0.2958 -0.5251  0.2086
13587SOL     OW41954   1.192   8.559   5.746 -0.3936 -0.0499  0.3244
13587SOL    HW141955   1.267   8.538   5.691  1.6630  1.8992  2.1507
13587SOL    HW241956   1.159   8.474   5.776  0.5518 -0.9827 -1.1555
13588SOL     OW41957   4.344   0.744   4.171  0.2305 -0.1886  0.3622
13588SOL    HW141958   4.267   0.789   4.206 -0.0465  0.0296 -0.4916
13588SOL    HW241959   4.310   0.691   4.099  0.4614 -2.2891  1.7347
13589SOL     OW41960   7.013   3.867   7.704  0.0315 -0.5619 -0.3175
13589SOL    HW141961   7.037   3.818   7.626 -0.1525  0.1607 -0.8364
13589SOL    HW241962   7.085   3.928   7.718  0.5617 -1.4021  0.6968
13590SOL     OW41963   0.999   2.599   0.468  0.4081 -0.0078  0.1580
13590SOL    HW141964   1.044   2.519   0.496 -0.1225 -0.4610 -0.2550
13590SOL    HW241965   1.010   2.600   0.373 -1.3738 -0.7205 -0.1025
13591SOL     OW41966   1.302   5.322   6.744 -0.6283 -0.1226  0.1442
13591SOL    HW141967   1.237   5.353   6.807 -0.8196 -0.1204 -0.0531
13591SOL    HW241968   1.283   5.370   6.663 -1.3174 -1.1756 -0.3476
13592SOL     OW41969   3.369   1.040   6.436  0.5422  0.4529 -0.2597
13592SOL    HW141970   3.421   0.977   6.486 -0.2034 -2.4823 -2.8377
13592SOL    HW241971   3.426   1.116   6.425  2.6713 -0.9484  0.5297
13593SOL     OW41972   1.574   7.262   2.871  0.0703 -0.0800 -0.3561
13593SOL    HW141973   1.582   7.175   2.832 -0.0035 -0.8802  1.3408
13593SOL    HW241974   1.659   7.303   2.856  0.1335 -0.4548 -1.0936
13594SOL     OW41975   5.508   6.521   0.088 -0.6791 -0.0222  0.2849
13594SOL    HW141976   5.553   6.510   0.004 -1.3468  1.9627 -0.4020
13594SOL    HW241977   5.545   6.454   0.144  3.5239  1.7173 -0.0672
13595SOL     OW41978   6.901   2.334   4.557 -0.2418 -0.1098  0.0014
13595SOL    HW141979   6.914   2.425   4.583 -0.3377 -0.5153  1.5788
13595SOL    HW241980   6.970   2.318   4.492 -0.4537  1.1800 -0.5654
13596SOL     OW41981   2.082   2.782   5.730 -0.3686  0.5530 -0.4940
13596SOL    HW141982   2.097   2.819   5.643 -1.6740  0.3398 -0.8337
13596SOL    HW241983   1.988   2.765   5.733 -0.4370  1.0410  1.1560
13597SOL     OW41984   0.438   1.671   0.560 -0.0818 -0.6355 -0.4705
13597SOL    HW141985   0.410   1.641   0.646 -0.1337  0.8190  0.0451
13597SOL    HW241986   0.524   1.632   0.547 -0.2248 -1.1468  0.0784
13598SOL     OW41987   3.551   3.118   6.540  0.1810 -0.0823  0.8008
13598SOL    HW141988   3.502   3.200   6.549 -0.5826 -0.4478  0.0496
13598SOL    HW241989   3.484   3.050   6.539  0.5730 -0.5162 -1.3143
13599SOL     OW41990   8.458   6.895   6.464 -0.5409 -0.4032 -0.2136
13599SOL    HW141991   8.509   6.928   6.389  0.3671 -1.9282 -0.3128
13599SOL    HW241992   8.423   6.974   6.505  1.5864  0.7168 -0.3794
13600SOL     OW41993   3.063   6.050   7.005 -0.1304  0.2065  0.1302
13600SOL    HW141994   3.026   5.971   7.044 -2.1742  1.3638  0.6529
13600SOL    HW241995   3.120   6.018   6.935 -2.2230 -1.6941 -0.7944
13601SOL     OW41996   6.539   0.684   3.973 -0.0062 -0.0624  0.8144
13601SOL    HW141997   6.458   0.638   3.994  0.3199 -1.5059 -0.8717
13601SOL    HW241998   6.604   0.648   4.032 -0.4825  0.8740  1.9556
13602SOL     OW41999   5.030   3.749   8.418  0.1864  0.3519 -0.4256
13602SOL    HW142000   5.077   3.799   8.485 -1.3998 -0.2396  1.2052
13602SOL    HW242001   5.077   3.665   8.415 -0.1025  0.1450  0.4420
13603SOL     OW42002   1.111   8.386   3.745  0.6695  0.4054 -0.2504
13603SOL    HW142003   1.048   8.453   3.719  0.2323  0.1042  0.0062
13603SOL    HW242004   1.056   8.313   3.773  1.1413  0.0722 -0.2010
13604SOL     OW42005   2.539   1.041   5.075 -0.0834  0.0907  0.5081
13604SOL    HW142006   2.551   0.981   5.002 -2.2238 -0.2016  0.3259
13604SOL    HW242007   2.598   1.008   5.143  0.4896 -0.8150 -0.3974
13605SOL     OW42008   2.867   7.635   6.942 -0.5126 -0.0115 -0.2508
13605SOL    HW142009   2.887   7.671   6.856  0.2371  1.6488  0.5671
13605SOL    HW242010   2.779   7.668   6.962  0.6492  2.6037  1.0228
13606SOL     OW42011   5.142   2.772   8.493 -0.2619 -0.2040 -0.1718
13606SOL    HW142012   5.201   2.697   8.490 -0.2340 -0.1658 -0.8104
13606SOL    HW242013   5.062   2.739   8.534  0.6043  0.0409  1.8660
13607SOL     OW42014   2.678   7.478   1.903  0.2087  0.1163  0.0772
13607SOL    HW142015   2.674   7.471   1.998  0.4632  0.6442  0.1291
13607SOL    HW242016   2.703   7.569   1.886 -0.1559  0.1182 -0.5008
13608SOL     OW42017   1.166   1.716   7.982 -0.1602  0.1641 -0.3410
13608SOL    HW142018   1.121   1.640   8.019 -0.8377  0.8522  0.2754
13608SOL    HW242019   1.259   1.693   7.989 -0.3689 -0.9834 -1.0078
13609SOL     OW42020   4.210   7.355   0.968 -0.6451 -0.1746 -0.4302
13609SOL    HW142021   4.289   7.375   0.918 -0.3421  2.4526  0.9325
13609SOL    HW242022   4.241   7.307   1.045 -0.9754 -3.1141 -2.0051
13610SOL     OW42023   7.729   8.008   2.027 -0.8020  0.1499  0.2616
13610SOL    HW142024   7.805   8.060   2.002 -0.2001 -0.7298  0.2190
13610SOL    HW242025   7.656   8.047   1.979 -0.2834  0.6592 -0.1250
13611SOL     OW42026   0.881   2.979   7.806 -0.2155 -0.3393  0.2360
13611SOL    HW142027   0.840   2.939   7.729  1.3069 -1.2450 -0.1457
13611SOL    HW242028   0.866   3.073   7.795 -2.6498 -0.6511  0.4245
13612SOL     OW42029   8.193   2.055   1.111 -0.3661 -0.3969  0.2179
13612SOL    HW142030   8.194   1.983   1.047  1.1152 -1.6141  1.5013
13612SOL    HW242031   8.196   2.010   1.196  2.1297  1.1295  1.0479
13613SOL     OW42032   0.291   6.634   7.365 -0.5143 -0.2185  0.4314
13613SOL    HW142033   0.301   6.719   7.408 -0.3301  0.9614 -1.8434
13613SOL    HW242034   0.351   6.576   7.413  0.2808  1.2190  1.2465
13614SOL     OW42035   5.060   6.473   6.525  0.3614 -0.2708 -0.0767
13614SOL    HW142036   5.084   6.521   6.605  2.2820  1.2667 -1.4520
13614SOL    HW242037   5.008   6.535   6.475 -1.7560 -1.6041  0.3664
13615SOL     OW42038   6.219   6.243   0.312 -0.4416 -0.2222 -0.1304
13615SOL    HW142039   6.232   6.291   0.393  0.6949 -0.7771  0.0294
13615SOL    HW242040   6.194   6.154   0.339  0.7870 -0.6544 -0.3475
13616SOL     OW42041   5.202   1.463   4.115  0.5198  0.3303 -0.0624
13616SOL    HW142042   5.168   1.509   4.192  0.6507  0.7685 -0.2668
13616SOL    HW242043   5.280   1.417   4.148 -1.6081 -2.8402  1.0721
13617SOL     OW42044   6.564   3.770   5.537 -0.0895 -0.2732  0.3192
13617SOL    HW142045   6.491   3.744   5.593 -0.4355 -0.0133 -0.0076
13617SOL    HW242046   6.573   3.697   5.475 -0.9932  0.3107 -0.5323
13618SOL     OW42047   3.793   0.814   8.340 -0.5495 -0.9161 -0.0709
13618SOL    HW142048   3.807   0.815   8.435 -0.7936 -0.7187 -0.0364
13618SOL    HW242049   3.869   0.768   8.306 -0.2456 -0.6180  0.1885
13619SOL     OW42050   3.734   4.020   8.247 -0.0429 -0.4011 -0.2850
13619SOL    HW142051   3.684   4.090   8.205 -0.1357 -1.3546 -1.8425
13619SOL    HW242052   3.825   4.050   8.244 -0.1909  0.0881 -0.0097
13620SOL     OW42053   6.479   1.532   8.533  0.3574 -0.3183 -0.0232
13620SOL    HW142054   6.571   1.512   8.549 -0.2289 -2.1688  1.2989
13620SOL    HW242055   6.460   1.491   8.448  0.2841 -1.7152  0.6367
13621SOL     OW42056   7.077   6.171   4.731 -0.0145  0.2364  0.5029
13621SOL    HW142057   7.092   6.120   4.652  2.6721 -1.3020  1.8838
13621SOL    HW242058   7.010   6.234   4.706 -0.3390 -1.1360 -2.5387
13622SOL     OW42059   7.959   6.879   4.935 -0.1516 -0.3520  0.1927
13622SOL    HW142060   8.013   6.954   4.957  1.3698 -0.4903 -2.6075
13622SOL    HW242061   7.900   6.911   4.867 -0.7097 -1.2524  0.2363
13623SOL     OW42062   0.426   7.595   6.106  0.2513 -0.1762  0.2324
13623SOL    HW142063   0.341   7.600   6.149  0.0514 -1.1464 -0.0301
13623SOL    HW242064   0.475   7.668   6.142 -1.0073  0.9923 -0.3127
13624SOL     OW42065   5.040   3.693   0.447 -0.2908  0.0660 -0.1028
13624SOL    HW142066   4.954   3.663   0.476 -1.1227  1.0884 -1.3698
13624SOL    HW242067   5.045   3.784   0.478 -0.3546  0.5224 -1.3915
13625SOL     OW42068   1.505   0.800   8.029  0.4288  0.6232 -0.2172
13625SOL    HW142069   1.451   0.877   8.014 -2.6787 -1.3324  0.0611
13625SOL    HW242070   1.470   0.762   8.109 -0.9234 -3.1656 -2.3813
13626SOL     OW42071   2.582   3.102   6.342 -0.6086 -0.0883  0.2204
13626SOL    HW142072   2.492   3.134   6.351 -0.0763  2.3460 -2.0658
13626SOL    HW242073   2.608   3.128   6.254  3.4614  2.3645  1.8692
13627SOL     OW42074   5.810   3.437   0.992  0.3242  1.5075 -0.0675
13627SOL    HW142075   5.796   3.370   1.059  1.0737  0.0664 -1.2934
13627SOL    HW242076   5.763   3.514   1.024 -0.2760  0.5006  1.5506
13628SOL     OW42077   8.139   4.317   8.473  0.6289 -0.3611  0.0413
13628SOL    HW142078   8.226   4.325   8.434  0.1541  0.2038 -0.9497
13628SOL    HW242079   8.151   4.259   8.548  1.8895 -0.1455  0.0238
13629SOL     OW42080   0.719   1.826   5.875 -0.3925  0.3863 -0.1318
13629SOL    HW142081   0.718   1.922   5.874  0.4694  0.4847  2.0840
13629SOL    HW242082   0.706   1.804   5.968  1.8953 -1.5549 -0.1915
13630SOL     OW42083   4.174   2.867   7.605 -0.1870 -0.3563 -0.2283
13630SOL    HW142084   4.110   2.843   7.537 -0.1471 -1.1158 -0.0053
13630SOL    HW242085   4.236   2.924   7.560 -1.7475  1.5381 -0.1355
13631SOL     OW42086   2.194   3.618   5.112 -0.1436 -0.4375  0.5546
13631SOL    HW142087   2.247   3.644   5.188 -0.0489 -0.1338  0.3841
13631SOL    HW242088   2.198   3.522   5.112  0.9814 -0.4026  0.1427
13632SOL     OW42089   6.543   4.627   1.341 -0.1709 -0.1017 -0.4032
13632SOL    HW142090   6.476   4.581   1.391  1.8272  0.3128  3.0008
13632SOL    HW242091   6.545   4.715   1.379  0.6208  0.6870 -2.1541
13633SOL     OW42092   7.619   5.598   6.820  0.4775  0.1058 -0.1506
13633SOL    HW142093   7.576   5.524   6.864  0.0458 -0.3752 -1.3514
13633SOL    HW242094   7.712   5.587   6.840  0.3146 -0.2020  0.4849
13634SOL     OW42095   5.045   8.004   4.808 -0.0454 -0.0014 -0.1485
13634SOL    HW142096   5.048   8.092   4.771 -0.5693  1.0840  2.2111
13634SOL    HW242097   5.137   7.983   4.825  0.0426  0.3389 -0.1910
13635SOL     OW42098   3.069   4.365   6.062  0.3804  0.6784 -0.9626
13635SOL    HW142099   3.158   4.401   6.052  0.6103  0.2696 -0.4218
13635SOL    HW242100   3.083   4.279   6.100 -0.1385 -0.2111 -2.6903
13636SOL     OW42101   7.777   6.625   7.256  0.3473 -0.2174 -0.0690
13636SOL    HW142102   7.806   6.613   7.347  1.8983 -0.6261 -0.5978
13636SOL    HW242103   7.855   6.650   7.208 -0.5539  0.5031 -1.2287
13637SOL     OW42104   7.797   3.135   6.325  0.1794  0.4329 -0.7308
13637SOL    HW142105   7.704   3.134   6.350  0.5028 -0.2709  0.5325
13637SOL    HW242106   7.818   3.043   6.309  1.2220  0.2411  1.3418
13638SOL     OW42107   6.004   3.556   5.363  0.1900  0.7515  0.0537
13638SOL    HW142108   5.947   3.601   5.302  0.5746 -0.7756 -1.4880
13638SOL    HW242109   6.023   3.472   5.322  1.3319  0.1029  1.7836
13639SOL     OW42110   8.384   4.288   8.332  0.2242  0.4686  0.0929
13639SOL    HW142111   8.479   4.295   8.338  0.4305 -1.3618 -0.5319
13639SOL    HW242112   8.368   4.223   8.264 -1.4936  0.8591  0.0653
13640SOL     OW42113   3.051   1.774   4.720  0.5743  0.0030 -0.1539
13640SOL    HW142114   3.004   1.714   4.779 -0.4518  0.4550 -0.4820
13640SOL    HW242115   3.044   1.859   4.763 -0.4082  0.3834 -1.0390
13641SOL     OW42116   2.064   6.217   6.104 -0.3859 -0.3226  0.5289
13641SOL    HW142117   2.032   6.291   6.155 -0.9828  2.1693 -3.0737
13641SOL    HW242118   2.003   6.210   6.030  1.2699 -2.5915 -0.7617
13642SOL     OW42119   7.331   8.419   5.716 -0.0715  0.0833  1.0798
13642SOL    HW142120   7.339   8.340   5.769 -1.3942 -0.0246  1.1392
13642SOL    HW242121   7.350   8.390   5.627  1.5755  0.1500  1.3674
13643SOL     OW42122   0.129   6.948   5.381 -0.0205  0.0243  0.1267
13643SOL    HW142123   0.128   7.040   5.353 -1.5251 -0.4957 -1.7285
13643SOL    HW242124   0.085   6.901   5.310  0.9372 -2.1870  0.9117
13644SOL     OW42125   2.507   5.446   6.329 -0.9441 -0.1755 -0.2816
13644SOL    HW142126   2.506   5.442   6.425  0.1993 -1.1076 -0.2917
13644SOL    HW242127   2.560   5.524   6.310 -1.0625 -0.0637 -0.1606
13645SOL     OW42128   0.396   5.530   0.989  0.0483  0.1238 -0.0682
13645SOL    HW142129   0.436   5.552   0.905  2.5716 -2.1114  0.4345
13645SOL    HW242130   0.469   5.529   1.051 -0.8640 -3.0740  1.1554
13646SOL     OW42131   0.500   6.839   3.967 -0.0229  0.0319  1.0237
13646SOL    HW142132   0.570   6.900   3.991 -0.6068  0.2151  2.3685
13646SOL    HW242133   0.462   6.877   3.888 -0.0249  1.1365  1.5311
13647SOL     OW42134   2.966   4.156   3.056 -0.4621 -0.2060 -0.0222
13647SOL    HW142135   3.022   4.079   3.042 -1.6086 -0.8059 -1.6827
13647SOL    HW242136   2.933   4.177   2.969  1.2420  3.3598 -0.0107
13648SOL     OW42137   2.750   2.081   3.894 -0.1694 -0.6010  0.5866
13648SOL    HW142138   2.819   2.143   3.916 -1.8077  1.4829  0.1512
13648SOL    HW242139   2.691   2.082   3.969 -0.8416 -0.7120  0.0728
13649SOL     OW42140   7.914   5.661   5.828 -0.7557  0.7857 -0.0822
13649SOL    HW142141   7.819   5.649   5.818 -0.4453 -4.5583  0.3383
13649SOL    HW242142   7.948   5.661   5.739 -1.0253  1.6660 -0.1977
13650SOL     OW42143   1.735   2.029   8.083  0.5903 -0.2401  0.2372
13650SOL    HW142144   1.690   1.947   8.067  0.6546 -0.1436 -0.4876
13650SOL    HW242145   1.666   2.095   8.089  0.6163  0.0265 -1.5913
13651SOL     OW42146   4.907   0.957   8.579  0.4802  0.3922  0.2526
13651SOL    HW142147   4.877   1.027   8.522 -0.0925  0.4463  0.6111
13651SOL    HW242148   4.951   0.896   8.521 -0.9185 -0.0343 -0.4036
13652SOL     OW42149   8.406   7.777   4.807  0.7321 -0.2516  0.1068
13652SOL    HW142150   8.339   7.845   4.818  1.9491  1.1628 -0.7873
13652SOL    HW242151   8.455   7.804   4.729  0.5948 -2.7564 -0.9643
13653SOL     OW42152   6.815   7.839   4.735 -1.1047  0.0428 -0.1412
13653SOL    HW142153   6.804   7.871   4.645  1.1184 -0.5201 -0.6894
13653SOL    HW242154   6.869   7.905   4.777  0.2841 -1.0660 -0.1241
13654SOL     OW42155   7.855   6.134   2.540  0.1567  0.4632  0.2436
13654SOL    HW142156   7.900   6.198   2.594  0.4589  0.6444 -0.2253
13654SOL    HW242157   7.785   6.101   2.597  0.9654  0.0576  1.0347
13655SOL     OW42158   0.312   3.738   4.417  0.0299 -0.0703  0.1109
13655SOL    HW142159   0.387   3.697   4.374 -0.3246 -0.4627 -0.1303
13655SOL    HW242160   0.238   3.680   4.398 -0.2095 -0.0289  0.8963
13656SOL     OW42161   7.314   5.668   2.415 -0.4683  0.0981  0.2565
13656SOL    HW142162   7.241   5.712   2.459  1.7410  1.5548  2.7260
13656SOL    HW242163   7.375   5.739   2.393  0.7826 -1.1912 -0.6093
13657SOL     OW42164   4.592   3.204   4.477  0.1053 -0.6221  0.0991
13657SOL    HW142165   4.543   3.148   4.537 -0.3687  0.7026  0.9940
13657SOL    HW242166   4.561   3.179   4.390 -0.3001 -1.5331  0.4970
13658SOL     OW42167   6.350   3.200   6.650  0.0497  0.3976 -0.0529
13658SOL    HW142168   6.321   3.118   6.689  2.1620 -0.1555  0.4493
13658SOL    HW242169   6.403   3.174   6.575  0.3178  1.3160 -0.1921
13659SOL     OW42170   2.065   1.990   6.277 -0.4558 -0.1896 -0.5310
13659SOL    HW142171   2.059   2.038   6.360 -0.7582 -0.6957 -0.2565
13659SOL    HW242172   1.996   2.028   6.222  1.3801  1.9531 -1.5147
13660SOL     OW42173   3.286   6.998   5.857 -0.1053 -0.6718  0.2050
13660SOL    HW142174   3.300   7.012   5.764 -0.7535  2.3120  0.4720
13660SOL    HW242175   3.226   6.923   5.861  2.2278 -2.8312 -1.5487
13661SOL     OW42176   4.203   1.060   0.307 -0.3985 -0.0847 -0.1703
13661SOL    HW142177   4.130   1.094   0.256  0.0769 -1.2388 -1.7360
13661SOL    HW242178   4.270   1.128   0.304 -0.5188  0.0066 -0.8154
13662SOL     OW42179   0.460   7.679   5.818 -0.2989  0.0657 -0.4254
13662SOL    HW142180   0.434   7.664   5.909  2.4755 -0.9041  0.3095
13662SOL    HW242181   0.506   7.763   5.820 -1.0513  0.5046 -1.1479
13663SOL     OW42182   1.100   2.988   1.193  0.0951  0.5215  0.2136
13663SOL    HW142183   1.053   2.928   1.251 -1.4105  0.6050 -0.8679
13663SOL    HW242184   1.126   2.933   1.119 -0.3755  0.9785 -0.2941
13664SOL     OW42185   8.533   4.912   6.755  0.2243  0.0138 -0.0320
13664SOL    HW142186   8.466   4.967   6.714  0.6305 -0.7325 -1.7584
13664SOL    HW242187   8.605   4.910   6.692  0.1922 -2.5582 -0.0727
13665SOL     OW42188   6.852   4.565   0.993  0.0373  0.4072 -0.2369
13665SOL    HW142189   6.803   4.612   0.925 -0.9873 -0.4961 -0.1470
13665SOL    HW242190   6.785   4.517   1.042  0.7550  1.0527  1.4383
13666SOL     OW42191   1.068   7.193   4.888 -0.2607  0.0986  0.0453
13666SOL    HW142192   1.002   7.228   4.948 -0.0392  0.1694  0.2479
13666SOL    HW242193   1.059   7.098   4.896 -0.6271  0.1053 -0.2457
13667SOL     OW42194   4.027   6.816   2.496 -0.4788  0.3110 -0.0683
13667SOL    HW142195   3.991   6.783   2.414  0.0215 -1.0707  0.2316
13667SOL    HW242196   3.951   6.822   2.555 -0.4062 -2.0203  0.3809
13668SOL     OW42197   5.452   4.943   6.826  0.1189 -0.0017  0.4622
13668SOL    HW142198   5.380   5.002   6.806 -0.5810 -1.2303 -0.8426
13668SOL    HW242199   5.501   4.937   6.743 -0.0015 -1.4599  0.4774
13669SOL     OW42200   7.852   4.997   1.115  0.1641  0.0033  0.1271
13669SOL    HW142201   7.789   5.055   1.071  0.0645 -0.4971 -0.4097
13669SOL    HW242202   7.816   4.985   1.203  1.0213  2.0368  0.8142
13670SOL     OW42203   1.113   1.807   2.878  0.1585  0.0321  0.5498
13670SOL    HW142204   1.195   1.793   2.831  1.6947  0.0160  3.0261
13670SOL    HW242205   1.082   1.719   2.899  1.6452 -0.0157  2.9109
13671SOL     OW42206   8.593   2.079   8.403  0.2533 -0.0784  0.2565
13671SOL    HW142207   8.512   2.048   8.445 -0.2249  0.6247 -0.1085
13671SOL    HW242208   8.589   2.174   8.414  0.3326  0.0798 -1.0015
13672SOL     OW42209   5.691   8.488   1.095 -0.0652 -0.0433 -0.1816
13672SOL    HW142210   5.670   8.582   1.087  1.3441  0.1573 -2.2235
13672SOL    HW242211   5.786   8.486   1.105  0.0163 -1.2729 -1.0474
13673SOL     OW42212   1.735   2.515   3.335  0.1169 -0.4868 -0.1139
13673SOL    HW142213   1.661   2.490   3.390  0.7658 -1.7715  0.2116
13673SOL    HW242214   1.753   2.606   3.359 -0.1763 -0.7480  1.1560
13674SOL     OW42215   5.112   3.648   1.577 -0.2504 -0.3546 -0.0928
13674SOL    HW142216   5.142   3.565   1.615  0.2212  0.1529  0.6900
13674SOL    HW242217   5.190   3.703   1.578 -1.0491  0.8156  1.4592
13675SOL     OW42218   5.366   1.501   0.501 -0.4697  0.5126  0.0621
13675SOL    HW142219   5.408   1.490   0.416  1.8510  0.5312  1.1220
13675SOL    HW242220   5.312   1.423   0.512  1.7025 -1.0995 -0.1138
13676SOL     OW42221   0.757   1.538   7.823 -0.9402  0.2445  0.2713
13676SOL    HW142222   0.711   1.542   7.739 -0.5203 -3.3443 -0.3142
13676SOL    HW242223   0.688   1.551   7.888 -1.7427  0.5332 -0.6012
13677SOL     OW42224   2.198   6.963   5.767 -0.4664 -0.0140 -0.1031
13677SOL    HW142225   2.111   6.986   5.736 -0.4741 -0.5458 -0.4964
13677SOL    HW242226   2.208   7.010   5.850 -1.3625 -0.4239  0.2463
13678SOL     OW42227   6.357   7.493   1.295  0.4877  0.2721  0.1274
13678SOL    HW142228   6.401   7.433   1.235  0.7692  0.0435  0.5538
13678SOL    HW242229   6.271   7.508   1.255  0.5088 -0.2201 -0.1111
13679SOL     OW42230   5.794   0.892   2.722 -0.0472  0.1234  0.3087
13679SOL    HW142231   5.837   0.918   2.640 -0.4950  0.5009  0.1845
13679SOL    HW242232   5.757   0.805   2.703 -0.5763  0.4214 -0.0624
13680SOL     OW42233   5.067   7.206   5.140 -0.5315 -0.0800  0.1127
13680SOL    HW142234   5.012   7.157   5.079 -0.8593 -0.1442  0.4489
13680SOL    HW242235   5.128   7.141   5.175  1.6890  0.5242 -2.3362
13681SOL     OW42236   1.689   3.009   6.777  0.7140  0.0242 -0.0914
13681SOL    HW142237   1.758   3.075   6.788  0.1496  0.3697  1.7481
13681SOL    HW242238   1.691   2.987   6.684  1.6784  1.8098 -0.5349
13682SOL     OW42239   1.058   7.198   8.114  0.7147 -0.0790 -0.6538
13682SOL    HW142240   1.081   7.232   8.027 -1.0836 -0.4928 -1.3254
13682SOL    HW242241   1.046   7.104   8.101  0.3202 -0.1305  0.0224
13683SOL     OW42242   6.160   6.091   5.534  0.6961  0.6971  0.2056
13683SOL    HW142243   6.128   6.123   5.449 -1.1919  0.3670  0.7636
13683SOL    HW242244   6.175   5.998   5.520  0.1210  0.5866  0.2934
13684SOL     OW42245   0.440   8.337   3.311  0.2209  0.3994  0.3531
13684SOL    HW142246   0.384   8.337   3.389  0.2618  1.3318  0.4003
13684SOL    HW242247   0.378   8.341   3.238  0.1827  2.3928  0.4239
13685SOL     OW42248   8.391   7.683   6.729 -0.2470 -0.0669 -0.1531
13685SOL    HW142249   8.403   7.627   6.806 -1.4204 -0.6303 -0.3639
13685SOL    HW242250   8.311   7.731   6.747  0.9217  1.8622  0.1852
13686SOL     OW42251   4.513   6.499   6.852  0.7178  0.0132  0.0689
13686SOL    HW142252   4.593   6.449   6.869  0.1914 -0.2867  1.9773
13686SOL    HW242253   4.489   6.477   6.762  1.8910 -1.1602  0.0163
13687SOL     OW42254   4.057   7.557   5.224 -0.4109 -0.0098  0.3158
13687SOL    HW142255   4.087   7.647   5.207 -0.2291 -0.1943 -0.3933
13687SOL    HW242256   3.973   7.551   5.178  0.3501 -0.6868 -1.0595
13688SOL     OW42257   5.696   1.284   5.355  0.8430 -0.0313  0.0399
13688SOL    HW142258   5.605   1.314   5.356  0.6658 -0.4798 -0.8886
13688SOL    HW242259   5.701   1.217   5.422  0.1048 -1.0176 -0.8572
13689SOL     OW42260   1.598   4.981   2.795 -0.0057  0.2586  0.1219
13689SOL    HW142261   1.527   4.997   2.858 -1.7976 -0.3237 -1.6520
13689SOL    HW242262   1.656   4.920   2.841 -0.7500  0.5953  1.5712
13690SOL     OW42263   6.693   5.215   5.869 -0.2821  0.3820 -0.6344
13690SOL    HW142264   6.628   5.222   5.799 -0.6065  0.3997 -0.3325
13690SOL    HW242265   6.747   5.139   5.844  0.5800  1.3129 -1.6984
13691SOL     OW42266   0.900   5.339   4.709 -0.3116 -0.2347  0.1502
13691SOL    HW142267   0.990   5.326   4.739  0.4212  0.5345 -1.5996
13691SOL    HW242268   0.867   5.251   4.694  0.1822 -0.5231  0.7023
13692SOL     OW42269   3.838   2.120   4.205 -0.1952 -0.1633  0.3324
13692SOL    HW142270   3.774   2.145   4.271 -0.6088 -2.4410  0.8771
13692SOL    HW242271   3.892   2.198   4.193 -1.4204  0.9688  1.8030
13693SOL     OW42272   0.906   8.586   0.157  0.2480  0.0772  0.4576
13693SOL    HW142273   0.924   8.541   0.240  1.1023 -1.3997 -0.4859
13693SOL    HW242274   0.894   8.677   0.181  4.1651  0.3971  1.8414
13694SOL     OW42275   8.496   0.364   7.953  0.0945 -0.6493  0.0352
13694SOL    HW142276   8.523   0.290   7.898  1.2159 -0.3620  0.1764
13694SOL    HW242277   8.545   0.439   7.919 -1.8686  0.3077 -0.8279
13695SOL     OW42278   0.167   6.631   0.864 -0.8731  0.4989  0.6936
13695SOL    HW142279   0.206   6.692   0.926 -0.8437  0.2300  0.9391
13695SOL    HW242280   0.189   6.666   0.778  1.5667 -0.6630  0.7781
13696SOL     OW42281   7.840   2.268   1.271 -0.0708  0.1854  0.4933
13696SOL    HW142282   7.869   2.359   1.278 -1.4354  0.7153 -0.3282
13696SOL    HW242283   7.896   2.220   1.332  1.7104  1.3210 -0.1682
13697SOL     OW42284   6.786   7.435   5.246  0.0158  0.1258  0.2463
13697SOL    HW142285   6.863   7.464   5.197  0.7322 -1.9651  0.0296
13697SOL    HW242286   6.778   7.499   5.318  1.8662  0.4741  0.1892
13698SOL     OW42287   8.604   6.839   2.743  0.4231  0.1341  0.3345
13698SOL    HW142288   8.692   6.805   2.762  0.3843 -0.1862 -0.0330
13698SOL    HW242289   8.565   6.854   2.829  0.5562 -0.4755  0.5089
13699SOL     OW42290   7.587   1.753   0.484 -0.6432  0.5917 -0.0589
13699SOL    HW142291   7.625   1.666   0.471 -1.3401  0.3327 -0.4789
13699SOL    HW242292   7.501   1.747   0.441 -1.4091  0.9595  1.3698
13700SOL     OW42293   7.732   3.348   3.025  0.0132  0.2853 -0.9830
13700SOL    HW142294   7.664   3.309   3.079 -0.2675  1.9788 -0.0536
13700SOL    HW242295   7.689   3.420   2.979  0.3790 -0.7569 -3.1058
13701SOL     OW42296   6.512   6.843   2.354 -0.5106  0.0594  0.2887
13701SOL    HW142297   6.425   6.879   2.372  0.6065  1.5636  3.4320
13701SOL    HW242298   6.536   6.798   2.435  1.9392  0.3021 -0.2439
13702SOL     OW42299   5.648   7.031   4.939 -0.4229 -0.1387 -0.4035
13702SOL    HW142300   5.598   7.003   4.862 -1.2960 -1.0823  0.4941
13702SOL    HW242301   5.700   7.105   4.907 -0.6612 -0.5946 -1.9399
13703SOL     OW42302   4.482   8.039   6.616  0.5708 -0.3773 -0.2990
13703SOL    HW142303   4.402   8.084   6.587  0.7349  0.2809  0.2303
13703SOL    HW242304   4.551   8.074   6.558  1.3418  2.6983  2.1494
13704SOL     OW42305   5.771   3.309   6.417  0.1578  0.2507 -0.3959
13704SOL    HW142306   5.715   3.368   6.367  2.9566  1.8016 -1.8904
13704SOL    HW242307   5.754   3.223   6.378 -2.9144  0.1394  0.8684
13705SOL     OW42308   7.636   7.454   7.911  0.4165  0.2092  0.2394
13705SOL    HW142309   7.704   7.388   7.919  1.8042  1.6117  0.5681
13705SOL    HW242310   7.592   7.455   7.996 -0.2187 -0.8697 -0.0545
13706SOL     OW42311   8.262   5.572   7.030 -0.5828 -0.0394 -0.4620
13706SOL    HW142312   8.315   5.493   7.015 -0.1369  0.1710 -0.0174
13706SOL    HW242313   8.210   5.581   6.950 -0.8951 -0.9843 -0.3780
13707SOL     OW42314   0.772   7.234   6.008  0.1154  0.7909  0.4389
13707SOL    HW142315   0.728   7.188   6.080 -0.6087  1.5976  0.5256
13707SOL    HW242316   0.701   7.277   5.961  0.5868  0.3044 -0.7494
13708SOL     OW42317   2.421   7.736   2.094 -0.1416  0.2745  0.1457
13708SOL    HW142318   2.459   7.824   2.093 -0.2188  0.3187  0.6557
13708SOL    HW242319   2.496   7.678   2.104 -0.2045  0.3751  1.4000
13709SOL     OW42320   4.595   2.047   7.996  0.5400 -0.1188  0.1743
13709SOL    HW142321   4.631   2.029   7.909 -0.9155 -0.0324 -0.4601
13709SOL    HW242322   4.530   1.978   8.009 -2.5079  2.3829 -0.7536
13710SOL     OW42323   5.941   5.967   7.270 -0.3018 -0.2342 -0.0660
13710SOL    HW142324   5.886   5.963   7.192 -0.1606  0.1383 -0.1918
13710SOL    HW242325   5.994   6.047   7.257 -0.7131  0.1711  0.7011
13711SOL     OW42326   0.904   5.841   1.128 -0.0089 -0.2411 -0.0634
13711SOL    HW142327   0.899   5.935   1.110 -2.0013 -0.4733 -1.1276
13711SOL    HW242328   0.897   5.800   1.041 -0.6955 -1.3696  0.5022
13712SOL     OW42329   0.438   2.773   0.002 -0.2178 -0.3690  0.4247
13712SOL    HW142330   0.380   2.840  -0.035 -0.2566 -0.7081 -0.1330
13712SOL    HW242331   0.507   2.823   0.046  0.9627  0.1137 -1.8199
13713SOL     OW42332   1.336   6.333   8.561 -0.9526 -0.0655  0.2689
13713SOL    HW142333   1.301   6.264   8.505 -2.8899  1.1760 -0.1316
13713SOL    HW242334   1.428   6.309   8.574 -1.3891 -2.3099 -0.4330
13714SOL     OW42335   4.011   7.923   2.951  0.1120 -0.2841 -0.3325
13714SOL    HW142336   3.979   7.915   2.862 -1.6105 -0.9688  0.3067
13714SOL    HW242337   3.943   7.972   2.997  1.5135  1.0709  0.3586
13715SOL     OW42338   7.974   8.526   8.494  0.1179 -0.1339 -0.0282
13715SOL    HW142339   8.036   8.506   8.564  0.4983  0.3331 -0.2206
13715SOL    HW242340   7.890   8.536   8.538  0.5157  1.0679  0.5059
13716SOL     OW42341   4.779   7.987   6.958  0.1026 -0.0933  0.1669
13716SOL    HW142342   4.686   7.998   6.938  0.3487  0.8975 -0.4529
13716SOL    HW242343   4.794   7.893   6.948 -1.0648 -0.4431  1.3514
13717SOL     OW42344   1.841   3.104   6.315  0.1324  0.0446 -0.2955
13717SOL    HW142345   1.759   3.068   6.282  0.3491 -0.7955  0.0658
13717SOL    HW242346   1.822   3.197   6.330 -0.8895 -0.2433  0.2567
13718SOL     OW42347   2.463   7.081   1.424  0.0522  0.8355 -0.0314
13718SOL    HW142348   2.532   7.016   1.412 -0.8326 -0.2215  0.5596
13718SOL    HW242349   2.467   7.134   1.344 -0.7874 -1.4200 -1.6615
13719SOL     OW42350   8.571   3.802   0.300 -0.0358  0.3746 -0.4679
13719SOL    HW142351   8.478   3.790   0.281 -0.8739  2.6082  1.7312
13719SOL    HW242352   8.611   3.716   0.281 -2.8075 -1.1489  0.1153
13720SOL     OW42353   4.555   5.630   3.542 -0.3321  0.3653 -0.0414
13720SOL    HW142354   4.521   5.660   3.457 -0.0726 -1.3152 -0.7916
13720SOL    HW242355   4.479   5.631   3.600 -0.2303  2.9025  0.1581
13721SOL     OW42356   4.810   2.719   7.425 -0.0653 -0.6520 -0.4061
13721SOL    HW142357   4.840   2.792   7.479  0.4549 -1.9207  1.1231
13721SOL    HW242358   4.733   2.685   7.471  0.2018 -1.5778 -0.6085
13722SOL     OW42359   8.406   5.085   8.527  0.3346 -0.3205  0.3539
13722SOL    HW142360   8.397   5.144   8.452  0.6918  1.0891  1.3685
13722SOL    HW242361   8.326   5.099   8.578  1.3562  0.9299  1.6893
13723SOL     OW42362   2.205   3.526   8.418 -0.0828  0.1098  0.2205
13723SOL    HW142363   2.197   3.438   8.383 -2.0261 -0.2779  1.5181
13723SOL    HW242364   2.292   3.555   8.390  0.1564 -1.7718 -1.1634
13724SOL     OW42365   7.148   3.756   4.081 -0.5701  0.6772  0.5354
13724SOL    HW142366   7.068   3.706   4.101 -0.2345 -0.0202  0.1817
13724SOL    HW242367   7.219   3.695   4.101 -0.1292  1.2416  0.6961
13725SOL     OW42368   6.981   2.799   2.442 -0.2739 -0.1333 -0.3040
13725SOL    HW142369   7.006   2.875   2.389 -0.6527  1.5473  1.7503
13725SOL    HW242370   6.992   2.724   2.384  0.4086  1.4502 -2.3584
13726SOL     OW42371   2.406   2.684   5.181  0.3666 -0.2982  0.3456
13726SOL    HW142372   2.382   2.597   5.213 -0.8459 -0.6686 -1.4288
13726SOL    HW242373   2.407   2.739   5.259 -1.1268 -1.4163  1.1997
13727SOL     OW42374   8.315   2.000   2.027  0.2198 -0.1169 -0.2724
13727SOL    HW142375   8.259   1.966   1.958 -0.1951 -0.3999  0.1967
13727SOL    HW242376   8.341   2.087   1.996 -1.7039  0.6653  0.1538
13728SOL     OW42377   2.975   3.130   0.692  0.5187  0.4904 -0.3438
13728SOL    HW142378   3.056   3.100   0.650  0.2580 -2.2489  0.8758
13728SOL    HW242379   3.003   3.159   0.779  0.4350  1.5323 -0.6563
13729SOL     OW42380   3.886   1.809   7.548 -0.0505 -0.1511  0.8891
13729SOL    HW142381   3.949   1.753   7.594  1.7096  1.9591  1.2027
13729SOL    HW242382   3.840   1.855   7.618 -0.1547  0.1451  0.6284
13730SOL     OW42383   3.937   6.697   2.938  0.4909 -0.2464 -0.4314
13730SOL    HW142384   3.859   6.748   2.916 -0.7773 -2.1553 -0.5603
13730SOL    HW242385   3.987   6.754   2.997 -2.1979  0.1361  1.6813
13731SOL     OW42386   2.583   8.482   2.511  0.1213 -0.4295 -0.4512
13731SOL    HW142387   2.578   8.387   2.500  0.3924 -0.4379 -0.5041
13731SOL    HW242388   2.645   8.494   2.583  1.8742 -0.2129 -1.9285
13732SOL     OW42389   5.047   3.213   3.861 -0.1065  0.0314  0.4794
13732SOL    HW142390   5.127   3.250   3.900 -0.0547 -0.7719  1.1864
13732SOL    HW242391   5.080   3.150   3.797 -0.1935  1.0856 -0.6390
13733SOL     OW42392   7.048   8.141   5.852  0.0695 -0.0460 -0.1311
13733SOL    HW142393   7.116   8.108   5.911  0.6821 -0.8725 -1.2641
13733SOL    HW242394   7.095   8.186   5.783 -0.5689 -0.0378 -0.5734
13734SOL     OW42395   5.723   6.266   4.314  0.1999  0.1511 -0.8435
13734SOL    HW142396   5.791   6.281   4.247 -0.6847 -2.5953 -2.5587
13734SOL    HW242397   5.757   6.308   4.392  2.8089  0.8615 -2.2156
13735SOL     OW42398   1.800   2.599   6.286  0.8066  0.2872 -0.0392
13735SOL    HW142399   1.866   2.658   6.323  0.7020 -0.3624  1.2501
13735SOL    HW242400   1.761   2.556   6.363 -0.3693 -0.1265 -0.8461
13736SOL     OW42401   7.830   4.172   3.873 -0.3340  0.1559 -0.1661
13736SOL    HW142402   7.892   4.114   3.917 -0.1713 -0.4383 -1.1575
13736SOL    HW242403   7.744   4.143   3.904 -0.2383 -0.4603 -0.4595
13737SOL     OW42404   8.276   8.131   2.105 -0.0783  0.0794 -0.2682
13737SOL    HW142405   8.214   8.176   2.048 -0.7942 -1.5862 -0.8531
13737SOL    HW242406   8.304   8.198   2.168 -2.6985  0.8299  0.2227
13738SOL     OW42407   1.727   5.775   0.600  0.5336 -0.2885  0.3972
13738SOL    HW142408   1.696   5.745   0.685 -0.2078  0.4157  0.3882
13738SOL    HW242409   1.823   5.771   0.606  0.4758 -0.8065  1.0492
13739SOL     OW42410   2.499   6.075   2.471  0.2498  0.2477 -0.1680
13739SOL    HW142411   2.474   5.983   2.473 -1.5040  0.6920  1.5143
13739SOL    HW242412   2.486   6.101   2.380 -0.3517 -0.9005 -0.4338
13740SOL     OW42413   1.835   2.457   8.352 -0.7358 -0.6421 -0.8839
13740SOL    HW142414   1.860   2.444   8.260  0.9722  0.1945 -0.5765
13740SOL    HW242415   1.896   2.401   8.401  0.6362  1.4361 -0.0994
13741SOL     OW42416   7.964   5.166   5.225 -0.2404  0.6553 -0.2157
13741SOL    HW142417   7.954   5.173   5.130 -0.8565 -0.7741 -0.2834
13741SOL    HW242418   7.948   5.254   5.257 -1.1406  0.9300 -1.3546
13742SOL     OW42419   6.550   1.044   3.373 -0.1603 -0.0046 -0.2403
13742SOL    HW142420   6.512   0.971   3.323 -0.7675  0.9796 -1.2380
13742SOL    HW242421   6.480   1.071   3.432  0.0309 -0.1379  0.0533
13743SOL     OW42422   7.887   8.072   8.284  0.2447  0.0379 -0.8028
13743SOL    HW142423   7.917   8.104   8.199  0.6382 -0.4669 -0.8619
13743SOL    HW242424   7.968   8.062   8.335  0.0575 -0.1379 -0.5381
13744SOL     OW42425   3.638   8.585   2.860 -0.1274 -0.1565 -0.0576
13744SOL    HW142426   3.666   8.545   2.942 -1.6843  0.8566  1.0227
13744SOL    HW242427   3.701   8.656   2.845  0.4418 -0.6458 -0.0189
13745SOL     OW42428   7.514   6.576   2.768 -0.1876 -0.1193  0.3641
13745SOL    HW142429   7.562   6.518   2.827  0.5633 -0.7086 -0.7694
13745SOL    HW242430   7.423   6.547   2.773 -0.0053 -0.6356  0.6898
13746SOL     OW42431   4.583   6.510   7.499 -0.2588  0.5737  0.0529
13746SOL    HW142432   4.625   6.584   7.455 -1.0094 -0.9305 -3.5613
13746SOL    HW242433   4.649   6.441   7.497 -1.2857 -0.4386 -1.6472
13747SOL     OW42434   4.911   8.015   0.571  0.1448 -0.0327  0.5917
13747SOL    HW142435   4.919   8.094   0.624  2.5185 -0.3188  0.7924
13747SOL    HW242436   4.834   8.030   0.516  0.5204  2.4236  0.6339
13748SOL     OW42437   0.788   8.392   1.790  0.1764 -0.1337 -0.0254
13748SOL    HW142438   0.774   8.479   1.752  2.9172 -0.5683 -2.3314
13748SOL    HW242439   0.821   8.411   1.878 -1.2924  1.0481  0.3229
13749SOL     OW42440   3.879   6.907   6.240 -0.2965  0.0849  0.1161
13749SOL    HW142441   3.958   6.960   6.250 -0.2779  0.0034  0.3886
13749SOL    HW242442   3.809   6.964   6.272 -0.5904  0.8241 -1.7071
13750SOL     OW42443   4.934   6.155   0.961 -0.0974 -0.1409  0.6101
13750SOL    HW142444   4.863   6.203   0.919 -0.5381  0.9479  2.5147
13750SOL    HW242445   4.916   6.063   0.941 -1.1194  0.2386 -0.2753
13751SOL     OW42446   7.829   3.094   7.913 -0.5608  0.0929 -0.0062
13751SOL    HW142447   7.752   3.112   7.967 -1.0260 -0.0857 -0.6023
13751SOL    HW242448   7.809   3.012   7.868 -0.1848  0.2498 -0.4666
13752SOL     OW42449   5.759   2.832   3.672  0.2082 -0.2388 -0.4309
13752SOL    HW142450   5.671   2.831   3.636  0.3124 -2.8937 -0.8188
13752SOL    HW242451   5.750   2.793   3.759  0.8928  0.2068 -0.1460
13753SOL     OW42452   0.146   0.051   7.673  0.1902  0.4886  0.4240
13753SOL    HW142453   0.176   0.004   7.751  0.0135 -1.8839 -0.8416
13753SOL    HW242454   0.070   0.101   7.703  0.8159  0.5454  2.0004
13754SOL     OW42455   0.692   5.859   4.811  0.0891  0.2852 -0.2600
13754SOL    HW142456   0.654   5.774   4.791  1.6200 -0.2765 -0.9003
13754SOL    HW242457   0.616   5.916   4.825 -0.9642 -1.1825  0.2935
13755SOL     OW42458   6.084   2.106   8.582  0.4401 -0.5904  0.0508
13755SOL    HW142459   6.170   2.136   8.611  1.0677 -1.8958 -0.3960
13755SOL    HW242460   6.102   2.048   8.508 -0.8616 -0.5360 -0.3429
13756SOL     OW42461   2.907   6.936   7.097  0.0626  0.4760 -0.2946
13756SOL    HW142462   2.917   7.031   7.103  0.2634  0.4593 -0.3406
13756SOL    HW242463   2.825   6.923   7.051  0.0826  0.6284 -0.3738
13757SOL     OW42464   5.237   6.997   7.694 -0.5036 -0.6250  0.5743
13757SOL    HW142465   5.236   7.011   7.599 -0.4152 -0.5002  0.5898
13757SOL    HW242466   5.326   6.965   7.712 -0.8664 -1.7210  0.4737
13758SOL     OW42467   6.185   3.685   6.435  0.4478 -0.2385 -0.7809
13758SOL    HW142468   6.145   3.601   6.414 -0.8180  0.5701 -1.7209
13758SOL    HW242469   6.181   3.691   6.531  0.9303 -1.4046 -0.6711
13759SOL     OW42470   3.815   8.131   7.582 -0.2898  0.2880 -0.1286
13759SOL    HW142471   3.902   8.155   7.551 -0.5906 -0.3976 -1.6470
13759SOL    HW242472   3.756   8.159   7.511 -1.3969  1.3314  1.1484
13760SOL     OW42473   6.015   7.965   4.868 -0.0968  0.6458  0.1328
13760SOL    HW142474   5.926   8.000   4.875  0.0135  0.9782 -0.0763
13760SOL    HW242475   6.071   8.043   4.864  0.0902  0.4736 -1.1568
13761SOL     OW42476   8.146   6.256   0.529 -0.2830  0.3919 -0.8498
13761SOL    HW142477   8.075   6.198   0.501 -1.5633  2.6474 -2.5709
13761SOL    HW242478   8.208   6.256   0.456  1.3215 -1.1289  0.4172
13762SOL     OW42479   2.211   0.135   4.980 -0.2870 -0.1511 -0.2590
13762SOL    HW142480   2.297   0.099   5.000 -0.6133 -1.3324 -0.8807
13762SOL    HW242481   2.150   0.062   4.995 -1.1625  0.5958 -0.0523
13763SOL     OW42482   1.863   3.432   7.200  0.0207 -0.0861 -0.0818
13763SOL    HW142483   1.952   3.420   7.233 -0.1399 -0.7215  0.1236
13763SOL    HW242484   1.813   3.360   7.238 -0.1449 -0.9447 -1.8228
13764SOL     OW42485   7.468   4.641   5.167 -0.1617 -0.4002 -0.4509
13764SOL    HW142486   7.431   4.670   5.083 -1.1733  0.1255  0.1524
13764SOL    HW242487   7.418   4.690   5.233  1.8600  0.6053  0.4188
13765SOL     OW42488   1.295   1.724   3.196 -0.1254  0.0946 -0.4976
13765SOL    HW142489   1.248   1.800   3.162  0.6486  1.3367  1.1123
13765SOL    HW242490   1.258   1.709   3.283  0.2912 -0.8805 -0.4739
13766SOL     OW42491   7.385   8.316   5.018 -0.7475 -0.4501  0.4161
13766SOL    HW142492   7.384   8.332   4.924 -1.6000 -3.1570 -0.1182
13766SOL    HW242493   7.396   8.221   5.027 -2.2616 -0.4904  2.9889
13767SOL     OW42494   0.912   0.145   6.157  0.1540 -0.0018 -0.3739
13767SOL    HW142495   0.927   0.236   6.182  3.8559  0.1240 -2.3493
13767SOL    HW242496   0.979   0.095   6.203 -1.3593 -1.7116  0.1204
13768SOL     OW42497   5.171   1.003   7.686  0.1834 -0.2890 -0.4545
13768SOL    HW142498   5.124   0.993   7.603  1.8108 -2.2926 -1.2215
13768SOL    HW242499   5.245   1.059   7.665  1.4578 -2.0091 -0.8291
13769SOL     OW42500   0.291   1.201   7.024  1.2074  0.2936 -0.0603
13769SOL    HW142501   0.289   1.105   7.023  2.2050  0.2132  1.4083
13769SOL    HW242502   0.203   1.228   7.000  0.5808 -1.0314  0.6569
13770SOL     OW42503   6.132   7.504   1.058 -0.3937 -0.4889 -0.2729
13770SOL    HW142504   6.104   7.573   1.118  0.3017 -0.4725  0.0422
13770SOL    HW242505   6.181   7.550   0.990 -0.6017 -0.5820 -0.4836
13771SOL     OW42506   1.981   1.460   2.986 -0.0841  0.5359 -0.2940
13771SOL    HW142507   2.011   1.522   2.919  1.6191  1.2093  1.0002
13771SOL    HW242508   1.889   1.446   2.966  0.4067  0.4664 -2.9457
13772SOL     OW42509   1.908   5.633   3.939 -0.4896 -0.2064  0.2590
13772SOL    HW142510   1.978   5.633   4.005 -0.3128  1.2151  0.0978
13772SOL    HW242511   1.945   5.588   3.864  0.1328  0.2305  0.3018
13773SOL     OW42512   4.169   5.071   1.181 -0.1974  0.1003  0.0391
13773SOL    HW142513   4.220   5.124   1.242  0.9271 -0.2190 -0.6082
13773SOL    HW242514   4.104   5.027   1.237  0.8251 -0.2110  1.0345
13774SOL     OW42515   5.225   6.013   2.607  0.4999 -0.3774  0.1493
13774SOL    HW142516   5.199   6.083   2.546  1.4632 -1.6705 -1.8735
13774SOL    HW242517   5.153   5.950   2.602 -0.0100  0.0846  1.3768
13775SOL     OW42518   0.375   6.268   7.121  0.3040  0.6092 -0.2698
13775SOL    HW142519   0.402   6.311   7.202  0.8702  0.6476 -0.4732
13775SOL    HW242520   0.344   6.182   7.149  0.1802  0.7460  0.0212
13776SOL     OW42521   5.767   6.394   6.598 -0.2648  0.0721 -0.2872
13776SOL    HW142522   5.729   6.480   6.614  0.6087  0.6071 -0.9814
13776SOL    HW242523   5.798   6.397   6.508 -1.0797 -1.3154 -0.6545
13777SOL     OW42524   7.525   4.672   3.228  0.3872 -0.4792 -0.4919
13777SOL    HW142525   7.598   4.724   3.194  0.6440 -0.6905 -0.2664
13777SOL    HW242526   7.525   4.689   3.322 -1.9548  2.2242 -0.8027
13778SOL     OW42527   4.344   5.558   1.495 -0.1241  0.4583 -0.0875
13778SOL    HW142528   4.422   5.614   1.507  0.1896 -0.1217  0.6520
13778SOL    HW242529   4.373   5.491   1.434 -0.7040  1.4670 -1.5118
13779SOL     OW42530   3.317   7.022   4.642  0.2468 -0.3277  1.1177
13779SOL    HW142531   3.330   7.036   4.735 -2.3774  0.1857  1.4706
13779SOL    HW242532   3.273   7.101   4.610 -0.6585 -1.2778 -0.1256
13780SOL     OW42533   1.090   1.356   7.151  0.1660 -0.4105  0.1715
13780SOL    HW142534   1.057   1.309   7.074 -0.7206  0.4663  0.0015
13780SOL    HW242535   1.113   1.287   7.213  0.8334 -1.1337 -0.8424
13781SOL     OW42536   6.535   4.076   1.196 -0.1256 -0.0506  0.4870
13781SOL    HW142537   6.610   4.135   1.188  0.0137 -0.1847  0.7772
13781SOL    HW242538   6.462   4.132   1.222 -0.5478  0.3725 -1.4475
13782SOL     OW42539   0.689   4.299   7.995 -0.1622 -0.1590 -0.4337
13782SOL    HW142540   0.779   4.334   7.995  0.4450 -1.4254 -3.2070
13782SOL    HW242541   0.642   4.355   7.933 -1.0414 -0.0911  0.2831
13783SOL     OW42542   2.418   7.677   7.960  0.1610 -0.0040  0.2404
13783SOL    HW142543   2.439   7.680   7.866  0.4684  0.2485  0.3142
13783SOL    HW242544   2.404   7.768   7.984  1.4784  0.0833  0.7453
13784SOL     OW42545   6.892   5.867   5.447 -0.0544 -0.1913  0.3314
13784SOL    HW142546   6.968   5.819   5.478 -0.3784 -1.3105 -0.5632
13784SOL    HW242547   6.831   5.799   5.418 -1.1560  0.7025  0.4848
13785SOL     OW42548   6.161   5.805   1.906  0.4879 -0.2623 -0.1396
13785SOL    HW142549   6.176   5.738   1.972  0.5321  1.5715  1.8341
13785SOL    HW242550   6.226   5.873   1.926  0.7643  0.1880 -2.3538
13786SOL     OW42551   0.646   7.162   1.145 -0.0553 -0.3355  0.9648
13786SOL    HW142552   0.604   7.127   1.066  2.1992  0.4706 -0.7205
13786SOL    HW242553   0.590   7.234   1.173  0.3381  1.0014 -1.4531
13787SOL     OW42554   2.680   5.616   6.579 -0.6010 -0.0455  0.2672
13787SOL    HW142555   2.599   5.661   6.602  0.1532  1.5051  0.0574
13787SOL    HW242556   2.706   5.655   6.495  1.3681  1.0044  1.2729
13788SOL     OW42557   0.424   7.212   4.180 -0.1482  0.0025  0.2774
13788SOL    HW142558   0.495   7.187   4.240 -0.2787 -1.1752 -0.0369
13788SOL    HW242559   0.345   7.206   4.234 -0.0089  1.6784  0.7320
13789SOL     OW42560   7.092   4.674   3.702 -0.0738  0.2823 -0.0008
13789SOL    HW142561   7.125   4.712   3.784  2.9908 -0.8405 -0.5987
13789SOL    HW242562   7.096   4.746   3.639 -1.3765  0.8487  0.5252
13790SOL     OW42563   6.011   7.995   3.393 -0.4744  0.3948  0.0972
13790SOL    HW142564   5.933   8.014   3.340  0.0329  0.2640 -0.7129
13790SOL    HW242565   5.976   7.973   3.479 -1.3824 -0.4283 -0.4590
13791SOL     OW42566   1.495   0.906   8.329 -0.1416 -0.0184  0.4139
13791SOL    HW142567   1.541   0.824   8.312 -0.8459 -0.2613 -0.3973
13791SOL    HW242568   1.411   0.897   8.282  0.3891  1.7695 -1.0226
13792SOL     OW42569   6.467   0.660   5.979  0.6514 -0.1286 -0.3470
13792SOL    HW142570   6.497   0.627   5.894 -1.5985 -1.8798 -0.5549
13792SOL    HW242571   6.471   0.755   5.971  1.0883 -0.2665 -2.1796
13793SOL     OW42572   3.748   4.262   3.617 -0.1549  0.4592  0.2006
13793SOL    HW142573   3.750   4.176   3.661  0.0066  0.3163 -0.0824
13793SOL    HW242574   3.666   4.301   3.645 -0.1285  0.3002  0.5049
13794SOL     OW42575   1.262   8.208   2.997 -0.0746  0.2274 -0.3626
13794SOL    HW142576   1.315   8.131   3.018 -3.1397 -2.2391 -0.7438
13794SOL    HW242577   1.325   8.278   2.982  2.8554 -1.7320  1.7056
13795SOL     OW42578   0.806   8.537   8.473 -0.5386  0.2049 -0.0645
13795SOL    HW142579   0.883   8.589   8.450 -0.1771 -0.5241 -0.5381
13795SOL    HW242580   0.826   8.500   8.559 -1.1392  1.4891  0.6468
13796SOL     OW42581   2.104   0.513   8.570 -0.8833 -0.0172 -0.6015
13796SOL    HW142582   2.127   0.497   8.479 -1.1968 -1.9829 -0.3756
13796SOL    HW242583   2.123   0.431   8.615 -2.1163  0.4257  0.8385
13797SOL     OW42584   6.563   2.532   3.658  0.1498  0.2317 -0.5416
13797SOL    HW142585   6.562   2.622   3.690 -0.9961  0.7055 -1.8363
13797SOL    HW242586   6.595   2.537   3.568  0.7281 -0.7456 -0.4124
13798SOL     OW42587   4.791   8.225   4.201  0.8384  0.4459 -0.1132
13798SOL    HW142588   4.845   8.304   4.209  1.0307  0.2879  0.1586
13798SOL    HW242589   4.715   8.253   4.151  0.8335  0.8390  0.1112
13799SOL     OW42590   7.754   6.421   8.130  0.2351  0.3686 -0.2630
13799SOL    HW142591   7.814   6.492   8.107  0.6714  0.5348  1.2992
13799SOL    HW242592   7.798   6.341   8.100  0.1603  0.6667 -1.2032
13800SOL     OW42593   1.124   7.959   3.522  0.8389  0.1733 -0.3457
13800SOL    HW142594   1.077   8.016   3.583  0.6458 -0.8945  0.5436
13800SOL    HW242595   1.102   7.993   3.436 -1.7173 -0.3532  0.0138
13801SOL     OW42596   6.540   7.799   4.075 -0.0253  0.4633  0.1290
13801SOL    HW142597   6.512   7.768   4.161  2.1246 -1.7729  0.1313
13801SOL    HW242598   6.510   7.732   4.014  1.0862  0.4811 -0.4560
13802SOL     OW42599   6.015   7.213   1.557  0.3813  0.5742 -0.0009
13802SOL    HW142600   5.940   7.242   1.609 -1.0978 -0.7795 -1.2683
13802SOL    HW242601   6.077   7.286   1.562 -0.4087  1.1795  2.2095
13803SOL     OW42602   1.365   8.010   5.995  0.3682 -0.1031 -0.3096
13803SOL    HW142603   1.341   7.954   6.069 -2.7268 -0.3199 -1.3025
13803SOL    HW242604   1.310   7.978   5.923  1.0384  2.0361 -1.8687
13804SOL     OW42605   3.197   8.212   2.869  0.3007 -0.0047 -0.9728
13804SOL    HW142606   3.168   8.299   2.899 -1.8573 -0.9908  0.0171
13804SOL    HW242607   3.253   8.180   2.939 -2.6327 -1.2182  1.0255
13805SOL     OW42608   5.608   0.965   7.066  0.3705 -0.4672 -0.1806
13805SOL    HW142609   5.571   0.976   7.154  0.4218  0.1490 -0.2345
13805SOL    HW242610   5.694   1.005   7.071 -0.6899  2.1309 -1.2493
13806SOL     OW42611   5.338   2.479   6.562  0.0256  0.4142  0.1191
13806SOL    HW142612   5.305   2.437   6.483  2.0079  0.7001 -0.9147
13806SOL    HW242613   5.280   2.448   6.632 -0.3676 -1.6583 -1.0719
13807SOL     OW42614   1.836   5.648   0.866  0.1575 -0.5119  0.0860
13807SOL    HW142615   1.792   5.657   0.951 -2.0006  0.4423 -1.0393
13807SOL    HW242616   1.875   5.561   0.868  0.7816 -0.2426  2.2966
13808SOL     OW42617   7.111   1.472   1.066 -0.0486  0.3573  0.7632
13808SOL    HW142618   7.056   1.393   1.065  1.9380 -1.0982  0.5439
13808SOL    HW242619   7.109   1.501   1.157 -1.6027  0.6881  0.6567
13809SOL     OW42620   8.143   6.254   1.694 -0.3213 -0.1227 -0.1759
13809SOL    HW142621   8.105   6.314   1.759  1.4900 -1.5349  2.3550
13809SOL    HW242622   8.213   6.305   1.653  0.2777 -0.0140  0.9445
13810SOL     OW42623   6.819   0.821   7.861  0.2331  0.3365 -0.2200
13810SOL    HW142624   6.739   0.871   7.845 -0.9389 -0.9372  1.4349
13810SOL    HW242625   6.796   0.758   7.929  2.5693 -0.2736  0.1006
13811SOL     OW42626   7.052   7.132   1.740  0.2630  0.6852 -0.4851
13811SOL    HW142627   6.967   7.091   1.721 -0.5366  2.3488 -0.6239
13811SOL    HW242628   7.081   7.166   1.655  0.0468  1.9762 -0.0514
13812SOL     OW42629   1.129   3.244   7.891 -0.3969  1.1063 -0.0474
13812SOL    HW142630   1.121   3.193   7.972  0.8128 -2.0052 -1.7601
13812SOL    HW242631   1.054   3.303   7.893  0.2013  2.0532  3.8583
13813SOL     OW42632   5.475   2.777   8.354 -0.4269 -0.0654  0.0189
13813SOL    HW142633   5.422   2.698   8.365 -0.2664  0.0387  1.9003
13813SOL    HW242634   5.558   2.757   8.397 -0.2960  1.0307  0.3224
13814SOL     OW42635   6.730   0.598   1.029  0.1032 -0.8765  0.4202
13814SOL    HW142636   6.770   0.633   1.109  1.4554 -0.4608 -0.4192
13814SOL    HW242637   6.719   0.673   0.972 -1.6250 -1.0347  0.4890
13815SOL     OW42638   7.803   5.352   0.791 -0.4871  0.2661 -0.4549
13815SOL    HW142639   7.870   5.285   0.808 -0.2524  0.4747 -0.5434
13815SOL    HW242640   7.822   5.422   0.853 -0.5931  0.3491 -0.5155
13816SOL     OW42641   2.899   5.180   2.867  0.5098 -0.4178 -0.0811
13816SOL    HW142642   2.907   5.260   2.919  0.5510 -0.8456  0.5782
13816SOL    HW242643   2.956   5.116   2.911  0.8696 -0.6672 -0.8898
13817SOL     OW42644   5.357   0.442   2.406  0.3348 -0.5125  0.8107
13817SOL    HW142645   5.339   0.357   2.364 -1.6822 -0.2878  1.0836
13817SOL    HW242646   5.431   0.477   2.357  0.7824 -2.1229  0.2454
13818SOL     OW42647   0.572   8.392   6.276  0.0926 -0.0347  0.0965
13818SOL    HW142648   0.477   8.400   6.267  0.0847  0.3220  0.4789
13818SOL    HW242649   0.606   8.479   6.257  0.2688  0.0672  0.8460
13819SOL     OW42650   7.636   6.845   0.521 -0.3880 -0.0101 -0.5125
13819SOL    HW142651   7.670   6.771   0.572 -0.0949  0.4766  0.0164
13819SOL    HW242652   7.641   6.920   0.581 -0.4507  0.4888 -1.1149
13820SOL     OW42653   5.784   5.235   0.866 -0.5688  0.2946  0.0212
13820SOL    HW142654   5.771   5.214   0.958 -0.2153 -0.3374 -0.0734
13820SOL    HW242655   5.854   5.177   0.836 -1.6557 -0.5297 -1.0143
13821SOL     OW42656   7.817   1.843   1.427 -0.6483  0.1983 -0.7655
13821SOL    HW142657   7.804   1.931   1.392 -0.1833  0.7080  0.2807
13821SOL    HW242658   7.874   1.800   1.363 -0.7704  0.6959 -1.2184
13822SOL     OW42659   6.741   4.361   0.778 -0.3749  0.3042 -0.6422
13822SOL    HW142660   6.799   4.381   0.852  0.4307  1.2245 -1.4830
13822SOL    HW242661   6.797   4.315   0.715 -1.0514 -0.4744 -0.6966
13823SOL     OW42662   1.792   5.152   3.456  0.0070  0.0262 -0.4208
13823SOL    HW142663   1.827   5.066   3.433  2.3625  0.8078 -0.0499
13823SOL    HW242664   1.776   5.195   3.373 -1.1719 -0.7271 -0.6081
13824SOL     OW42665   8.527   5.982   0.173  0.4782 -0.0775 -0.0332
13824SOL    HW142666   8.560   5.987   0.263 -0.9220  3.1691  0.4536
13824SOL    HW242667   8.585   6.039   0.123  0.3095 -0.6220 -0.8677
13825SOL     OW42668   4.903   1.981   0.862  0.0044 -0.5325 -0.0444
13825SOL    HW142669   4.962   1.906   0.864  1.0854  0.2337  2.7733
13825SOL    HW242670   4.821   1.949   0.899  0.4831 -0.3544  1.2105
13826SOL     OW42671   7.763   1.005   4.695 -0.1670 -0.1045 -0.5561
13826SOL    HW142672   7.849   1.040   4.670 -0.2539 -0.7769 -1.8951
13826SOL    HW242673   7.781   0.950   4.771  0.0021  2.5588  1.4659
13827SOL     OW42674   4.600   1.579   3.241  0.4336  0.6252 -0.2603
13827SOL    HW142675   4.530   1.629   3.199  0.1263 -0.6216 -1.3285
13827SOL    HW242676   4.555   1.520   3.301  0.5562 -0.1186 -0.8845
13828SOL     OW42677   3.349   5.330   7.809  0.3968 -0.3477  0.1379
13828SOL    HW142678   3.293   5.406   7.797 -0.9637 -1.4532 -0.8393
13828SOL    HW242679   3.350   5.315   7.903 -1.1004 -0.3890  0.1674
13829SOL     OW42680   7.400   6.677   2.320  0.3604  0.0321 -0.1347
13829SOL    HW142681   7.431   6.663   2.230  0.6183  0.1860 -0.0724
13829SOL    HW242682   7.347   6.600   2.340  3.5048 -2.0667  0.9655
13830SOL     OW42683   0.408   3.588   4.644  0.1963  0.2225 -0.2241
13830SOL    HW142684   0.374   3.589   4.554  0.7416  1.7430 -0.4364
13830SOL    HW242685   0.377   3.670   4.683  1.7277  0.5919  0.2754
13831SOL     OW42686   0.717   7.295   2.161  0.4510  0.1203  0.4509
13831SOL    HW142687   0.784   7.253   2.214  0.4718  0.1987  0.4880
13831SOL    HW242688   0.647   7.317   2.224  1.0857  1.4929  0.7108
13832SOL     OW42689   4.882   7.670   7.135 -0.2213  0.3405  0.1738
13832SOL    HW142690   4.901   7.577   7.123 -1.1588 -0.1391  2.0604
13832SOL    HW242691   4.854   7.700   7.048  2.4453 -0.4749 -1.1003
13833SOL     OW42692   6.504   2.661   3.985  0.0008  0.1539  0.3446
13833SOL    HW142693   6.464   2.576   3.965  0.4011  0.2745 -1.0810
13833SOL    HW242694   6.436   2.725   3.962 -0.3801  0.2344  1.6187
13834SOL     OW42695   1.358   4.662   4.381  0.4189 -0.3078  0.0844
13834SOL    HW142696   1.302   4.588   4.358  1.2650 -1.0089  0.2363
13834SOL    HW242697   1.438   4.649   4.329 -0.1580  1.5518 -1.3859
13835SOL     OW42698   0.592   2.235   1.887  0.4203  0.0503 -0.2226
13835SOL    HW142699   0.590   2.210   1.794 -0.2595  1.3520 -0.5864
13835SOL    HW242700   0.526   2.181   1.928 -1.7790  1.8447 -1.1864
13836SOL     OW42701   3.132   5.734   2.180  0.8389 -0.2819  0.5186
13836SOL    HW142702   3.127   5.713   2.273 -0.9179 -2.0152  0.0953
13836SOL    HW242703   3.187   5.665   2.143  2.0279  0.7329  0.2995
13837SOL     OW42704   1.866   7.313   2.239  0.1587 -0.2542  0.1655
13837SOL    HW142705   1.802   7.382   2.249  0.8021  0.8287 -2.3575
13837SOL    HW242706   1.820   7.244   2.190  0.5430 -0.0035 -0.5630
13838SOL     OW42707   5.452   8.141   2.095  0.6346  0.1244 -0.0782
13838SOL    HW142708   5.398   8.216   2.119 -0.1904 -0.2068 -0.8526
13838SOL    HW242709   5.493   8.113   2.177  0.4459  1.0180  0.3270
13839SOL     OW42710   7.211   6.995   1.931 -0.2972 -0.6476 -0.2261
13839SOL    HW142711   7.147   7.040   1.877 -1.4901  0.3447  1.9031
13839SOL    HW242712   7.289   7.050   1.927  0.2453 -1.4733 -2.2283
13840SOL     OW42713   7.286   4.574   3.448  0.1190  0.6063  0.1297
13840SOL    HW142714   7.261   4.482   3.447 -0.3164  0.6657  2.0806
13840SOL    HW242715   7.344   4.584   3.372 -1.7330 -0.6866 -1.5407
13841SOL     OW42716   4.944   7.654   7.743  0.2052  0.3416 -0.1294
13841SOL    HW142717   4.950   7.559   7.753 -0.9161  0.4397  2.0459
13841SOL    HW242718   5.030   7.680   7.710  0.9026 -1.3329  0.2599
13842SOL     OW42719   1.700   8.340   4.431  0.2497 -1.0656  0.0931
13842SOL    HW142720   1.699   8.436   4.435  1.2324 -1.0104 -0.5490
13842SOL    HW242721   1.695   8.320   4.338 -0.4081 -1.6561  0.2556
13843SOL     OW42722   2.505   2.193   3.296 -0.5178 -0.5195  0.0106
13843SOL    HW142723   2.525   2.277   3.337 -3.2481  0.5074 -0.5332
13843SOL    HW242724   2.497   2.213   3.203 -1.1964 -1.3872 -0.1334
13844SOL     OW42725   0.907   6.027   0.673  0.0349 -0.7036  0.1801
13844SOL    HW142726   0.877   6.114   0.697 -0.5541 -0.4500 -1.3343
13844SOL    HW242727   0.826   5.976   0.662  0.2835 -0.9638 -0.5586
13845SOL     OW42728   6.544   2.170   5.209 -0.0509  0.4038  0.6343
13845SOL    HW142729   6.629   2.177   5.166 -0.2485  0.3382  0.2252
13845SOL    HW242730   6.519   2.261   5.226  0.0693  0.4267  0.6924
13846SOL     OW42731   3.085   4.676   0.732 -0.2098 -0.3838 -0.2852
13846SOL    HW142732   3.095   4.651   0.640 -0.2165 -0.2906 -0.3108
13846SOL    HW242733   3.129   4.761   0.739  2.2594 -1.6141  0.3923
13847SOL     OW42734   5.178   3.086   6.661 -0.3159 -0.1364 -0.3514
13847SOL    HW142735   5.087   3.084   6.632  0.2255 -0.2924 -2.1564
13847SOL    HW242736   5.226   3.123   6.586  1.1587 -0.4513  0.4012
13848SOL     OW42737   5.462   7.435   6.131  0.0249  0.5272  0.1401
13848SOL    HW142738   5.446   7.376   6.204  1.0744  0.7705  0.5711
13848SOL    HW242739   5.383   7.427   6.077 -0.6636  0.1752  1.1653
13849SOL     OW42740   3.294   7.043   8.542  0.0279 -0.6006 -0.0810
13849SOL    HW142741   3.269   7.055   8.633 -1.0995 -0.4936 -0.3927
13849SOL    HW242742   3.249   6.963   8.515 -2.7090  1.2818 -1.5737
13850SOL     OW42743   4.010   0.499   0.817  0.5232  0.0514  0.5794
13850SOL    HW142744   4.053   0.546   0.745  0.4788 -0.6747  0.0616
13850SOL    HW242745   3.965   0.426   0.774 -1.9434  1.2282  0.9777
13851SOL     OW42746   1.471   6.240   0.888 -0.4255 -0.3414 -0.8243
13851SOL    HW142747   1.395   6.233   0.832 -0.9330  0.2327 -0.2294
13851SOL    HW242748   1.436   6.235   0.977 -0.1158  2.3438 -0.4669
13852SOL     OW42749   7.740   1.578   6.582  0.3227 -0.3497 -0.4682
13852SOL    HW142750   7.647   1.586   6.561  0.6422  0.9099 -1.4869
13852SOL    HW242751   7.743   1.507   6.646 -1.1999 -1.2504 -1.3228
13853SOL     OW42752   2.850   0.597   0.823  0.4235 -0.0390  0.5685
13853SOL    HW142753   2.908   0.648   0.766 -1.8018  0.6146 -1.2232
13853SOL    HW242754   2.788   0.661   0.858  0.1930 -0.8622  1.7194
13854SOL     OW42755   4.944   7.458   7.373  0.3055  0.5464  0.1218
13854SOL    HW142756   4.929   7.409   7.293 -1.4940 -0.2476  0.8773
13854SOL    HW242757   4.856   7.473   7.409  0.9837  1.8860  1.3536
13855SOL     OW42758   6.549   8.340   6.064 -0.0382 -0.5104  0.6210
13855SOL    HW142759   6.585   8.367   5.980  0.4101 -0.3444  0.8586
13855SOL    HW242760   6.517   8.251   6.049  0.7634 -0.7831  0.4775
13856SOL     OW42761   6.185   0.677   4.345  0.2295  0.1825  0.2337
13856SOL    HW142762   6.204   0.754   4.398  0.3242 -0.1146  0.6445
13856SOL    HW242763   6.239   0.688   4.267 -0.5617  1.0450 -0.2060
13857SOL     OW42764   8.029   1.578   6.127 -0.0576  0.7759  0.1299
13857SOL    HW142765   7.971   1.613   6.060  0.9640  1.3430 -0.4856
13857SOL    HW242766   7.971   1.536   6.190 -1.0221 -0.0132 -1.2479
13858SOL     OW42767   7.617   1.181   6.583  0.3264  0.2985 -0.8111
13858SOL    HW142768   7.658   1.220   6.506 -0.1214 -0.8754 -1.6712
13858SOL    HW242769   7.690   1.139   6.630  0.4929  0.4081 -0.9710
13859SOL     OW42770   5.421   7.035   1.667 -0.4688 -0.7486 -0.1148
13859SOL    HW142771   5.473   7.054   1.588  2.2308 -0.3820  1.6026
13859SOL    HW242772   5.416   7.118   1.713 -0.0823 -1.3934  1.1336
13860SOL     OW42773   2.776   5.742   4.194 -0.0382 -0.0868  0.9156
13860SOL    HW142774   2.826   5.799   4.251  0.3315  0.0534  0.4551
13860SOL    HW242775   2.744   5.800   4.124  2.3045 -0.8239 -0.8689
13861SOL     OW42776   5.721   7.601   2.022 -0.0582  0.0684 -0.5044
13861SOL    HW142777   5.708   7.660   1.947  0.0980 -0.1700 -0.7199
13861SOL    HW242778   5.750   7.658   2.093  1.9757  0.0099 -1.2405
13862SOL     OW42779   3.894   3.926   0.693  0.1504  0.2173 -0.4087
13862SOL    HW142780   3.958   3.868   0.651 -0.4186 -0.2234 -0.6712
13862SOL    HW242781   3.887   3.893   0.782 -1.0317 -0.8708 -0.8683
13863SOL     OW42782   3.638   0.506   7.953  0.6252 -0.3433 -0.4202
13863SOL    HW142783   3.564   0.518   7.893  0.7447  0.6438 -0.3826
13863SOL    HW242784   3.675   0.593   7.963  0.9837 -0.6045  0.6237
13864SOL     OW42785   8.047   5.205   0.863  0.6978 -0.8304  0.2750
13864SOL    HW142786   8.128   5.255   0.855 -0.9591  1.9265 -0.7924
13864SOL    HW242787   8.053   5.163   0.948  1.6157  2.5558  2.0609
13865SOL     OW42788   8.190   6.843   5.660  0.7563 -0.7560  0.1066
13865SOL    HW142789   8.255   6.810   5.598 -1.0375  0.0168 -2.3344
13865SOL    HW242790   8.116   6.783   5.652  0.3292 -0.4075  1.2325
13866SOL     OW42791   8.135   7.162   0.717 -0.1737  0.2236  1.3321
13866SOL    HW142792   8.164   7.178   0.627  1.8984  0.3285  1.9885
13866SOL    HW242793   8.085   7.080   0.711  0.0997  0.1178  0.1308
13867SOL     OW42794   5.086   2.845   2.651  0.0723 -0.2574  0.3923
13867SOL    HW142795   5.129   2.762   2.629 -0.3725 -0.5278  0.5146
13867SOL    HW242796   5.150   2.912   2.628 -0.0556 -0.5680 -0.9768
13868SOL     OW42797   3.969   1.132   0.198 -0.0238 -0.0758  0.4441
13868SOL    HW142798   3.882   1.099   0.179  0.2031 -2.3458  2.7996
13868SOL    HW242799   3.954   1.205   0.258 -0.3262  0.0120  0.2626
13869SOL     OW42800   8.215   0.815   2.760  0.9083 -0.4238 -0.6033
13869SOL    HW142801   8.214   0.750   2.689 -0.3892 -2.8923  1.4751
13869SOL    HW242802   8.123   0.842   2.769  0.9810 -0.4468  0.3515
13870SOL     OW42803   5.781   2.046   5.088  0.4324 -1.0829  0.6744
13870SOL    HW142804   5.830   1.964   5.098 -0.4081 -1.6892  0.0767
13870SOL    HW242805   5.839   2.114   5.121  1.1581 -1.9257  1.1707
13871SOL     OW42806   6.894   1.761   7.132  0.5364 -0.6358  0.1013
13871SOL    HW142807   6.817   1.740   7.079  1.9508 -1.2102 -1.8877
13871SOL    HW242808   6.861   1.814   7.204 -1.9000 -2.0838  0.1521
13872SOL     OW42809   1.096   1.212   6.915  0.0608  0.0017 -0.5788
13872SOL    HW142810   1.174   1.189   6.864 -0.8969 -1.4753 -1.4444
13872SOL    HW242811   1.023   1.196   6.856 -0.9680  0.5025  0.5143
13873SOL     OW42812   1.396   4.868   2.143 -0.6142  0.2176 -0.2808
13873SOL    HW142813   1.402   4.774   2.157 -0.5356  0.2548 -0.0753
13873SOL    HW242814   1.485   4.895   2.123 -0.6297  0.2559 -0.2984
13874SOL     OW42815   2.077   0.553   6.872  0.0392 -0.2786  0.2292
13874SOL    HW142816   2.018   0.627   6.884 -1.8994 -1.7483  0.1536
13874SOL    HW242817   2.031   0.478   6.910  0.6011 -2.0167 -2.2362
13875SOL     OW42818   3.108   4.512   2.042 -0.4579 -0.2700 -0.1548
13875SOL    HW142819   3.052   4.455   2.095  0.4398 -1.7105 -0.7085
13875SOL    HW242820   3.178   4.455   2.010 -1.0012  0.4684 -2.9814
13876SOL     OW42821   3.145   8.377   4.270  0.2492 -0.0812 -0.0795
13876SOL    HW142822   3.160   8.364   4.176 -1.1224 -1.5331 -0.1268
13876SOL    HW242823   3.218   8.333   4.312 -0.5848 -1.8701 -0.4335
13877SOL     OW42824   1.287   4.686   7.035 -0.2361 -0.1721 -0.1277
13877SOL    HW142825   1.370   4.729   7.019 -0.6756  0.6958 -0.1185
13877SOL    HW242826   1.298   4.598   6.999  1.1134 -0.5091  1.0203
13878SOL     OW42827   0.021   5.385   6.181 -0.6869  0.1804 -0.1050
13878SOL    HW142828   0.030   5.476   6.151  1.4090 -0.3617 -1.2852
13878SOL    HW242829  -0.073   5.376   6.200 -1.1699  2.2014 -1.2036
13879SOL     OW42830   5.531   8.073   1.069  0.3312  0.2445  0.2824
13879SOL    HW142831   5.444   8.033   1.066  0.0545  0.8845 -0.6410
13879SOL    HW242832   5.538   8.109   1.158 -0.0944 -0.3516  0.5607
13880SOL     OW42833   5.953   1.154   4.763  0.4002  0.1123 -0.2009
13880SOL    HW142834   6.006   1.107   4.699 -1.8503 -0.8812 -1.4605
13880SOL    HW242835   5.884   1.196   4.711 -0.1195  1.2791  1.3492
13881SOL     OW42836   5.557   7.860   0.457  0.1435 -0.3186  0.7780
13881SOL    HW142837   5.505   7.938   0.441 -1.5175 -1.2619  1.3269
13881SOL    HW242838   5.516   7.792   0.404  0.8884 -1.0702  1.1365
13882SOL     OW42839   1.886   5.657   7.250 -0.3835 -0.3146  0.3917
13882SOL    HW142840   1.912   5.565   7.254 -0.9430 -0.5253 -0.5586
13882SOL    HW242841   1.896   5.689   7.340 -0.0283 -1.2566  0.6934
13883SOL     OW42842   2.747   1.629   3.726 -0.3721  0.2801 -1.0770
13883SOL    HW142843   2.834   1.598   3.753  1.0530  1.4516 -3.8796
13883SOL    HW242844   2.756   1.725   3.725 -1.7006  0.4091 -1.4235
13884SOL     OW42845   4.644   4.492   1.157  0.1019  0.7544 -0.3042
13884SOL    HW142846   4.558   4.514   1.194  1.2245  1.7088  2.0008
13884SOL    HW242847   4.679   4.576   1.128  0.2700  0.3597 -1.2820
13885SOL     OW42848   2.526   4.587   5.519 -0.0843  0.0202  0.4675
13885SOL    HW142849   2.539   4.578   5.614  0.3193 -1.8420  0.2730
13885SOL    HW242850   2.615   4.583   5.483 -0.3213 -0.5299 -0.0619
13886SOL     OW42851   4.080   6.139   2.467  0.0274  0.4470  0.2283
13886SOL    HW142852   4.155   6.091   2.502 -1.3329 -3.5516 -1.6325
13886SOL    HW242853   4.112   6.176   2.385  0.7567  1.6656  1.0351
13887SOL     OW42854   6.027   4.629   2.897 -0.5852 -0.4103  1.0549
13887SOL    HW142855   6.095   4.619   2.963  1.1605 -0.1501 -0.6095
13887SOL    HW242856   6.030   4.722   2.874  0.7190 -0.9347 -1.2081
13888SOL     OW42857   8.427   5.547   4.544  0.0655  1.0636  0.5034
13888SOL    HW142858   8.446   5.543   4.637  1.6045 -0.5003  0.1746
13888SOL    HW242859   8.514   5.548   4.502 -0.5889  0.5054 -0.9310
13889SOL     OW42860   0.082   5.710   3.911 -0.4102 -0.5496  0.4561
13889SOL    HW142861   0.041   5.676   3.991  1.4112 -0.0249  1.6786
13889SOL    HW242862   0.014   5.763   3.870 -1.3800 -0.8061  1.6827
13890SOL     OW42863   2.885   6.458   2.330 -0.3173  0.2206 -0.0359
13890SOL    HW142864   2.934   6.388   2.287 -0.7526  0.2179 -0.5366
13890SOL    HW242865   2.910   6.537   2.282 -1.5141  0.0894 -0.9230
13891SOL     OW42866   0.043   5.124   8.282  0.4515  0.2579  0.6538
13891SOL    HW142867   0.089   5.101   8.363 -0.2227 -2.0199  0.4402
13891SOL    HW242868  -0.009   5.047   8.260 -0.5974  1.3952 -1.1278
13892SOL     OW42869   7.638   4.425   5.128 -0.3323  0.1053 -0.1088
13892SOL    HW142870   7.587   4.504   5.148 -1.2165 -0.9097  1.9642
13892SOL    HW242871   7.572   4.357   5.114  0.4247 -0.7441  0.3794
13893SOL     OW42872   8.048   4.502   4.187 -0.1200  0.1933  0.4735
13893SOL    HW142873   8.011   4.526   4.272 -1.3717  0.5709 -0.1493
13893SOL    HW242874   7.994   4.549   4.123  1.9586  1.4562 -0.4826
13894SOL     OW42875   6.692   0.567   4.163 -0.2043  0.4253 -0.9513
13894SOL    HW142876   6.691   0.627   4.238 -3.3398 -0.5377 -0.0692
13894SOL    HW242877   6.697   0.480   4.202 -1.0934 -0.0578 -1.8870
13895SOL     OW42878   3.808   5.386   5.619  0.3375  0.0592 -0.0049
13895SOL    HW142879   3.873   5.354   5.682 -1.1334 -1.7806  0.6990
13895SOL    HW242880   3.860   5.422   5.547  2.1431 -1.0791  0.6444
13896SOL     OW42881   2.557   3.250   5.812 -0.4803 -0.2151  0.3198
13896SOL    HW142882   2.556   3.169   5.761 -2.1367 -0.6279  0.9361
13896SOL    HW242883   2.465   3.273   5.821 -0.1051  0.9262  1.4341
13897SOL     OW42884   7.872   6.817   2.596 -0.2379  0.1142  0.5062
13897SOL    HW142885   7.866   6.837   2.689 -0.8277 -0.4580  0.5974
13897SOL    HW242886   7.781   6.819   2.565 -0.1039 -0.3161  0.0757
13898SOL     OW42887   4.578   1.358   8.101  0.1511 -0.6444  0.3072
13898SOL    HW142888   4.635   1.288   8.133  2.6044  0.6523 -0.8948
13898SOL    HW242889   4.639   1.425   8.069 -2.1031  0.6079 -1.6489
13899SOL     OW42890   7.658   6.909   4.112  0.4387  0.0330  0.0054
13899SOL    HW142891   7.746   6.943   4.128  0.2284  0.9611 -0.6849
13899SOL    HW242892   7.662   6.817   4.138  1.0985  0.5205  1.7188
13900SOL     OW42893   1.650   2.189   2.290  0.2873 -0.3815  0.1433
13900SOL    HW142894   1.638   2.193   2.195 -0.0881 -1.4165  0.1244
13900SOL    HW242895   1.741   2.215   2.305  0.5897 -0.9983 -0.5849
13901SOL     OW42896   5.482   2.303   3.985 -0.1808  0.0758 -0.0987
13901SOL    HW142897   5.491   2.274   4.076 -0.9181  0.7115  0.1838
13901SOL    HW242898   5.569   2.293   3.948  0.0672 -0.4401  0.6002
13902SOL     OW42899   3.911   3.436   4.414  1.0006  0.5203  0.0533
13902SOL    HW142900   3.937   3.462   4.326  0.4727  0.9283  0.0153
13902SOL    HW242901   3.821   3.466   4.423  0.6291 -0.6392  0.2867
13903SOL     OW42902   5.844   8.026   2.481  0.2899  0.5373  0.1693
13903SOL    HW142903   5.938   8.043   2.494  0.7053  0.0963 -1.9294
13903SOL    HW242904   5.841   7.939   2.442 -0.9378  0.9011 -0.5807
13904SOL     OW42905   4.547   2.915   5.098 -0.6185  1.0008  0.5045
13904SOL    HW142906   4.587   2.969   5.030 -0.3948  0.9894  0.6233
13904SOL    HW242907   4.608   2.842   5.110 -1.2939  0.3075 -0.1934
13905SOL     OW42908   5.510   2.349   5.116 -0.1913  0.2102  0.0817
13905SOL    HW142909   5.514   2.259   5.082  0.0189  0.0847  0.4295
13905SOL    HW242910   5.587   2.392   5.079 -0.8327  0.5461 -0.9034
13906SOL     OW42911   3.121   1.694   3.024 -0.1390 -0.1282  0.5345
13906SOL    HW142912   3.151   1.628   3.087  0.9025 -0.8348 -0.6366
13906SOL    HW242913   3.068   1.644   2.961 -1.7923  0.6943  1.2211
13907SOL     OW42914   7.171   6.910   2.786 -0.0918 -0.1132  0.3938
13907SOL    HW142915   7.086   6.952   2.798 -1.4277 -2.0295 -1.7137
13907SOL    HW242916   7.223   6.973   2.736 -0.8919  0.3492  0.1395
13908SOL     OW42917   2.581   6.991   0.481  0.4254  0.3249  0.1768
13908SOL    HW142918   2.582   6.934   0.404  0.4447  0.8165 -0.1921
13908SOL    HW242919   2.666   6.978   0.522  0.2145 -0.3415  0.4201
13909SOL     OW42920   2.454   3.694   3.014  0.5089  0.0088  0.2908
13909SOL    HW142921   2.443   3.608   3.054  2.4167  0.2817  1.4848
13909SOL    HW242922   2.438   3.756   3.085 -3.8977  0.9348 -1.1401
13910SOL     OW42923   2.031   1.278   0.858 -0.2470 -0.1338  0.0296
13910SOL    HW142924   1.961   1.274   0.924 -0.4540  0.6184 -0.1287
13910SOL    HW242925   2.031   1.370   0.830  0.7892 -0.1345  0.0062
13911SOL     OW42926   8.419   6.327   7.501  0.1319 -0.3469  0.2084
13911SOL    HW142927   8.330   6.359   7.514  0.0755 -0.0907 -0.7218
13911SOL    HW242928   8.442   6.356   7.413  1.0798 -0.5490  0.3793
13912SOL     OW42929   5.095   0.052   4.943 -0.4785  0.2101  0.2277
13912SOL    HW142930   5.095   0.145   4.964 -0.8167  0.4194 -0.6773
13912SOL    HW242931   5.083   0.048   4.848 -1.2892 -0.7723  0.3540
13913SOL     OW42932   7.626   5.686   5.781  0.3398 -0.6798 -0.3209
13913SOL    HW142933   7.561   5.622   5.753  0.2226 -0.4794 -0.5108
13913SOL    HW242934   7.576   5.749   5.834  0.0312  0.4224 -1.8604
13914SOL     OW42935   7.565   6.997   3.318 -0.5901 -0.3779 -0.1196
13914SOL    HW142936   7.619   6.990   3.396  1.0897 -1.7240 -1.3109
13914SOL    HW242937   7.554   7.091   3.303 -1.6597 -0.0895  2.1496
13915SOL     OW42938   3.959   4.683   4.598  0.3412 -0.0005 -0.1877
13915SOL    HW142939   3.884   4.625   4.612  1.0207 -0.5975  1.1111
13915SOL    HW242940   3.927   4.770   4.623 -0.8513  0.3632 -2.6641
13916SOL     OW42941   3.857   5.275   6.342  0.2915  0.2215  0.3569
13916SOL    HW142942   3.890   5.283   6.432 -2.0938 -0.6099  1.4006
13916SOL    HW242943   3.857   5.181   6.324  1.8733  0.4445 -1.0251
13917SOL     OW42944   6.653   5.498   8.581 -0.3980  0.3078  0.8458
13917SOL    HW142945   6.712   5.519   8.508 -0.1743 -0.4551  0.7958
13917SOL    HW242946   6.606   5.579   8.598  0.6364  0.9254  0.8516
13918SOL     OW42947   2.908   5.960   4.308 -0.1746  0.6160  0.2206
13918SOL    HW142948   2.930   6.017   4.235 -0.0919  0.9329  0.4873
13918SOL    HW242949   2.844   6.010   4.359  0.0622  0.5673  0.5740
13919SOL     OW42950   5.050   0.120   1.111  0.0558 -0.0051  0.0132
13919SOL    HW142951   5.012   0.099   1.197 -2.4512  0.3928 -0.9020
13919SOL    HW242952   4.983   0.172   1.068  1.1024 -0.4788 -2.3289
13920SOL     OW42953   2.877   8.466   2.658  0.0646  0.4260 -0.0938
13920SOL    HW142954   2.920   8.511   2.585 -0.8017  0.1249 -0.8043
13920SOL    HW242955   2.907   8.375   2.651 -0.5386  0.2548 -0.4807
13921SOL     OW42956   6.309   1.476   6.316 -0.6934  0.7993  0.3853
13921SOL    HW142957   6.403   1.458   6.309 -0.3583  2.2157  0.9904
13921SOL    HW242958   6.302   1.571   6.310 -2.1094  0.7012  0.2389
13922SOL     OW42959   1.074   8.549   8.090  0.2147  0.2046  0.4130
13922SOL    HW142960   1.158   8.531   8.133  0.3139  0.6537  0.4209
13922SOL    HW242961   1.079   8.502   8.007  0.1957 -0.3204  0.7105
13923SOL     OW42962   3.100   5.554   7.704  0.1042  0.1561 -0.2956
13923SOL    HW142963   3.026   5.512   7.747  0.0445  1.0789  0.5074
13923SOL    HW242964   3.062   5.627   7.655  0.4260  0.3689 -0.2317
13924SOL     OW42965   0.644   2.885   4.477 -0.7575  0.1326 -0.6787
13924SOL    HW142966   0.597   2.943   4.418  0.0219  1.6503  0.1038
13924SOL    HW242967   0.681   2.817   4.421 -2.0223  0.1631 -1.5747
13925SOL     OW42968   1.693   6.799   5.200  0.1199  0.4108  0.3415
13925SOL    HW142969   1.736   6.743   5.135  0.0349  0.7025  0.0281
13925SOL    HW242970   1.764   6.852   5.236  0.3492 -0.5064  1.2802
13926SOL     OW42971   6.563   6.404   6.850 -0.4055  0.1196  0.1400
13926SOL    HW142972   6.527   6.423   6.763  0.4364  1.9602  0.1473
13926SOL    HW242973   6.619   6.328   6.837 -0.9201 -0.1233 -0.7588
13927SOL     OW42974   0.192   2.085   5.920  0.2306 -0.1954 -0.0614
13927SOL    HW142975   0.143   2.003   5.931 -0.9645  0.4863 -0.1799
13927SOL    HW242976   0.177   2.110   5.829  3.2909 -1.4864 -1.0826
13928SOL     OW42977   3.720   1.011   5.825 -0.1618  0.4362  0.3450
13928SOL    HW142978   3.707   0.922   5.792 -2.8133 -0.0522  2.3250
13928SOL    HW242979   3.650   1.062   5.783 -0.8167  0.7649  1.7770
13929SOL     OW42980   1.889   0.614   4.501  0.0979  0.7843  0.3856
13929SOL    HW142981   1.805   0.622   4.546 -0.7527 -0.0946 -0.9686
13929SOL    HW242982   1.903   0.700   4.462 -0.7005  0.6494 -0.2282
13930SOL     OW42983   6.528   7.150   5.366 -0.3607 -0.6022 -0.1254
13930SOL    HW142984   6.435   7.174   5.371 -0.2960 -0.1648 -0.8835
13930SOL    HW242985   6.574   7.224   5.404 -0.2387 -0.1184 -1.1950
13931SOL     OW42986   8.192   7.318   5.734  0.2511  0.2048  0.3327
13931SOL    HW142987   8.200   7.236   5.785 -0.2036  0.3500  0.6449
13931SOL    HW242988   8.122   7.366   5.778 -0.4235  0.1609 -0.6746
13932SOL     OW42989   7.102   0.544   1.580 -0.0895  0.3472  0.2231
13932SOL    HW142990   7.089   0.583   1.666 -2.7342 -0.9207  0.4867
13932SOL    HW242991   7.158   0.468   1.597 -1.1361 -0.2758  0.9415
13933SOL     OW42992   4.945   6.657   6.369  0.2700 -0.3601 -0.1142
13933SOL    HW142993   4.988   6.743   6.364 -0.4456 -0.0162 -0.4851
13933SOL    HW242994   4.938   6.629   6.278  2.3863 -1.7839  0.1093
13934SOL     OW42995   8.206   6.088   3.743  0.0799  0.1522 -0.1653
13934SOL    HW142996   8.117   6.051   3.744 -0.0623  0.2993 -2.2234
13934SOL    HW242997   8.229   6.098   3.835 -0.6949 -3.1075  0.5337
13935SOL     OW42998   8.137   5.339   5.421 -0.5150 -0.4319 -0.5913
13935SOL    HW142999   8.076   5.383   5.363  0.0464  0.3472 -0.6087
13935SOL    HW243000   8.119   5.246   5.409 -0.1685 -0.3063 -2.2756
13936SOL     OW43001   5.080   5.371   6.406 -0.3140 -0.0997 -0.0024
13936SOL    HW143002   5.005   5.424   6.435  0.6304  1.8721 -0.9412
13936SOL    HW243003   5.048   5.324   6.329 -1.3480 -1.4511  1.1969
13937SOL     OW43004   5.798   5.952   0.541  0.1332  0.3107  0.1175
13937SOL    HW143005   5.858   5.910   0.479  0.2471 -0.2976  0.6173
13937SOL    HW243006   5.757   5.879   0.588  0.9181  0.7488  1.5625
13938SOL     OW43007   0.033   0.987   1.323  0.0909 -0.2755 -0.0622
13938SOL    HW143008  -0.001   0.903   1.355  2.3065 -2.0157 -1.9493
13938SOL    HW243009  -0.027   1.011   1.252  0.6531 -1.4428 -0.9684
13939SOL     OW43010   5.910   4.072   2.136 -0.4719 -0.0845 -0.7344
13939SOL    HW143011   5.909   3.998   2.197 -0.2039 -0.6340 -1.3900
13939SOL    HW243012   5.934   4.147   2.191 -3.0701 -0.0026  0.4342
13940SOL     OW43013   2.470   0.226   3.922  0.2814 -0.8841  0.0021
13940SOL    HW143014   2.456   0.307   3.873 -0.3096 -0.3279  1.0525
13940SOL    HW243015   2.459   0.157   3.857 -0.4630 -0.1680 -0.6642
13941SOL     OW43016   3.376   1.821   0.967 -0.4488  0.8939  0.0256
13941SOL    HW143017   3.406   1.768   0.893  2.7489 -0.1872  1.9110
13941SOL    HW243018   3.342   1.758   1.030  2.5987  0.9329  1.9327
13942SOL     OW43019   4.703   0.024   1.402  0.5113  0.8121 -0.0701
13942SOL    HW143020   4.742  -0.037   1.339 -0.3773  0.0579  0.0919
13942SOL    HW243021   4.694  -0.026   1.482  0.2389  1.3126  0.2173
13943SOL     OW43022   2.614   0.942   3.950 -0.3870  0.3422  0.1276
13943SOL    HW143023   2.685   1.003   3.930 -0.4772  0.3008 -0.3308
13943SOL    HW243024   2.652   0.878   4.009  0.4307 -0.6530 -1.4235
13944SOL     OW43025   1.180   4.332   2.800  0.4010 -1.3334 -0.1405
13944SOL    HW143026   1.172   4.384   2.880  5.2110  0.4707 -0.5023
13944SOL    HW243027   1.156   4.391   2.729 -0.2350 -1.7388 -0.2776
13945SOL     OW43028   6.022   7.184   0.710  0.2045 -0.1857  0.0365
13945SOL    HW143029   5.968   7.256   0.743  0.0861 -0.6125  0.7893
13945SOL    HW243030   6.027   7.200   0.616  0.8560  1.2508  0.2889
13946SOL     OW43031   4.409   6.993   4.218  0.5949 -0.1975 -0.2270
13946SOL    HW143032   4.490   6.948   4.239  0.1962 -0.2693  1.2871
13946SOL    HW243033   4.381   7.032   4.301  1.1253  3.2511 -1.5127
13947SOL     OW43034   2.170   0.063   7.680 -0.3123 -0.2027  1.0289
13947SOL    HW143035   2.117   0.029   7.752 -1.0544 -0.9371  0.1527
13947SOL    HW243036   2.221  -0.012   7.650 -0.6158 -0.1198  0.2733
13948SOL     OW43037   2.889   2.103   1.853  0.0975  0.2024 -0.4801
13948SOL    HW143038   2.803   2.125   1.888  0.3025  2.9172 -1.4048
13948SOL    HW243039   2.888   2.136   1.763  1.2050 -2.2334 -1.4790
13949SOL     OW43040   6.314   5.876   5.475  0.2618  0.4571  0.4367
13949SOL    HW143041   6.389   5.877   5.534 -1.7216 -2.2169  3.3658
13949SOL    HW243042   6.335   5.809   5.410  0.5847  0.0483  0.9581
13950SOL     OW43043   8.550   5.583   4.105 -0.3838 -0.9936 -0.2016
13950SOL    HW143044   8.529   5.490   4.094 -1.6116 -0.5530 -1.9214
13950SOL    HW243045   8.467   5.623   4.132  0.1407 -0.3765  0.5467
13951SOL     OW43046   5.000   0.854   3.902  0.6427  0.8303  0.3792
13951SOL    HW143047   5.030   0.764   3.914  0.3705  0.7381  0.3699
13951SOL    HW243048   4.915   0.857   3.945  0.6960  1.1099  0.4645
13952SOL     OW43049   5.944   4.451   7.611 -0.1855 -0.2653  0.1665
13952SOL    HW143050   5.861   4.402   7.616 -0.0654 -0.5862 -0.8937
13952SOL    HW243051   5.923   4.529   7.560  0.0433 -0.0652  0.3722
13953SOL     OW43052   4.076   0.245   2.746 -0.1312  0.3484 -0.5345
13953SOL    HW143053   4.064   0.153   2.771 -1.7412  0.5594 -0.4501
13953SOL    HW243054   4.062   0.294   2.827 -2.3004  0.8344 -1.1413
13954SOL     OW43055   8.346   1.198   4.156  0.7241  0.2006  0.6970
13954SOL    HW143056   8.288   1.267   4.190 -0.3969 -0.9801  1.2562
13954SOL    HW243057   8.322   1.190   4.064  1.0207  0.7000  0.5702
13955SOL     OW43058   6.418   5.832   4.838 -0.5395 -0.0775  0.4221
13955SOL    HW143059   6.427   5.854   4.931  0.3049  0.3641  0.2485
13955SOL    HW243060   6.424   5.917   4.794  0.9741 -0.4484 -0.1471
13956SOL     OW43061   1.554   5.889   6.869  0.6702 -0.4730  0.0683
13956SOL    HW143062   1.503   5.853   6.941  1.4975  0.8052  1.3393
13956SOL    HW243063   1.566   5.815   6.809 -1.3551 -1.1725  0.4471
13957SOL     OW43064   5.478   5.970   2.736  0.0202 -0.2376 -0.5839
13957SOL    HW143065   5.401   6.003   2.689 -0.8778 -0.7576  0.4501
13957SOL    HW243066   5.441   5.920   2.809  1.3034 -2.4192 -1.3109
13958SOL     OW43067   8.505   6.467   4.823  0.6780 -0.4354  0.0645
13958SOL    HW143068   8.440   6.446   4.756  0.0638 -2.1474  1.1175
13958SOL    HW243069   8.525   6.560   4.809 -0.6198 -0.3341 -1.4442
13959SOL     OW43070   4.583   6.036   3.638  0.0951  0.0509  0.5214
13959SOL    HW143071   4.595   5.942   3.639  1.4951  0.2086  0.9770
13959SOL    HW243072   4.627   6.067   3.717  2.8453  1.3857 -1.3489
13960SOL     OW43073   3.760   7.988   5.528  0.2674  0.6241 -0.4697
13960SOL    HW143074   3.848   7.969   5.559  0.8880  0.3165 -2.3146
13960SOL    HW243075   3.707   7.914   5.560  1.2349 -0.6119 -1.6162
13961SOL     OW43076   8.000   6.282   3.200  0.2042 -0.2574 -0.4647
13961SOL    HW143077   7.985   6.247   3.288 -1.5929 -0.1562 -0.6802
13961SOL    HW243078   7.955   6.366   3.200 -1.5013 -1.0957 -2.0064
13962SOL     OW43079   0.400   0.379   3.966  0.4829 -0.5567  0.2197
13962SOL    HW143080   0.431   0.467   3.943  0.2330 -0.8478 -1.3733
13962SOL    HW243081   0.370   0.386   4.056 -0.5432  1.2784 -0.2254
13963SOL     OW43082   7.018   8.068   2.598  0.3441  0.6063  0.2162
13963SOL    HW143083   6.985   8.018   2.523  3.1549  0.5964 -1.1322
13963SOL    HW243084   7.025   8.003   2.668 -2.4137  0.6373  0.6590
13964SOL     OW43085   7.804   7.923   1.753  0.1269  0.1566  0.3276
13964SOL    HW143086   7.817   7.838   1.711  0.6168 -0.0197  0.8178
13964SOL    HW243087   7.809   7.904   1.847  1.1504  0.8535  0.4289
13965SOL     OW43088   4.442   3.097   1.551 -0.3656 -0.1924 -0.0414
13965SOL    HW143089   4.537   3.096   1.539 -0.4829  1.2867 -1.3427
13965SOL    HW243090   4.430   3.134   1.639  0.2563 -2.1979  0.9619
13966SOL     OW43091   8.436   3.275   8.059  0.2856 -0.1369 -0.4706
13966SOL    HW143092   8.472   3.340   7.999 -1.9628 -0.2941 -2.1073
13966SOL    HW243093   8.480   3.194   8.035  1.2047  0.2733 -0.1981
13967SOL     OW43094   3.402   2.182   5.619 -0.2120 -0.4094 -0.3835
13967SOL    HW143095   3.330   2.198   5.680  0.6215  2.2766  0.0518
13967SOL    HW243096   3.363   2.192   5.532 -0.4470  0.8041 -0.1551
13968SOL     OW43097   5.456   1.617   1.148  0.2557  0.1164 -0.0135
13968SOL    HW143098   5.453   1.704   1.186  0.4072  0.3695 -0.5767
13968SOL    HW243099   5.365   1.591   1.139  0.1475  0.8797 -1.3466
13969SOL     OW43100   5.818   7.001   4.492 -0.1096 -0.1559  0.0816
13969SOL    HW143101   5.736   6.988   4.445  0.3070 -1.7474 -0.2671
13969SOL    HW243102   5.814   6.940   4.566  0.0515  0.9778  1.0557
13970SOL     OW43103   3.432   0.867   6.692 -0.9300  0.5515 -0.0125
13970SOL    HW143104   3.428   0.815   6.772  2.2182 -0.5143 -0.3955
13970SOL    HW243105   3.384   0.817   6.627  1.4138 -1.6953 -0.1798
13971SOL     OW43106   7.227   5.966   0.113 -0.1096  0.4899 -0.2022
13971SOL    HW143107   7.159   6.028   0.139 -0.4807 -0.4193  1.1053
13971SOL    HW243108   7.293   6.019   0.068 -1.1565  1.5623 -0.5131
13972SOL     OW43109   7.723   3.744   3.806  0.2055 -0.7008  0.4580
13972SOL    HW143110   7.735   3.649   3.815 -1.0307 -0.9037  0.1890
13972SOL    HW243111   7.642   3.762   3.854 -0.0218  0.0804 -0.2074
13973SOL     OW43112   6.177   4.144   8.283 -0.0928  0.3505 -0.3446
13973SOL    HW143113   6.170   4.117   8.374 -3.8302  2.6106  0.2572
13973SOL    HW243114   6.245   4.088   8.246  0.2828 -1.9288  3.3212
13974SOL     OW43115   8.109   1.424   7.296 -0.2340  0.3363  0.4718
13974SOL    HW143116   8.135   1.341   7.255 -0.2805 -0.1138  1.3185
13974SOL    HW243117   8.161   1.428   7.377 -0.6373  0.8621  0.7127
13975SOL     OW43118   2.532   7.845   7.201 -0.1194  0.0442 -0.1946
13975SOL    HW143119   2.533   7.940   7.189  0.9813 -0.1038 -1.6225
13975SOL    HW243120   2.443   7.819   7.178 -0.2718  0.6714 -0.3524
13976SOL     OW43121   2.185   6.123   3.554  0.3648 -0.0532  0.0608
13976SOL    HW143122   2.117   6.173   3.510  0.9058 -0.8066 -1.6929
13976SOL    HW243123   2.227   6.187   3.612 -0.2547  1.0097 -0.6198
13977SOL     OW43124   5.962   2.938   6.404  0.3700 -0.2432  0.0488
13977SOL    HW143125   6.028   2.974   6.345 -0.8101 -0.1175 -1.2492
13977SOL    HW243126   5.984   2.845   6.411 -0.5944 -0.7109 -2.2438
13978SOL     OW43127   2.951   7.947   3.276  0.8763 -0.0992  0.1224
13978SOL    HW143128   2.947   8.027   3.225  0.1004  0.6909  1.3523
13978SOL    HW243129   2.873   7.950   3.332  0.6634 -1.8645 -0.0048
13979SOL     OW43130   4.626   4.947   4.767 -0.1401  0.2492  0.5549
13979SOL    HW143131   4.709   4.954   4.718  0.0167  1.9887  1.0018
13979SOL    HW243132   4.651   4.966   4.857 -0.6264 -1.8069  1.1707
13980SOL     OW43133   5.877   1.770   2.216 -0.7677 -0.5197 -0.7011
13980SOL    HW143134   5.850   1.706   2.151 -1.8065  1.1424 -1.9833
13980SOL    HW243135   5.971   1.782   2.200 -0.5872 -1.5992 -0.5170
13981SOL     OW43136   5.826   1.053   8.250  0.5361  0.0847 -0.0540
13981SOL    HW143137   5.834   1.000   8.170 -2.4118  0.8873 -1.0092
13981SOL    HW243138   5.752   1.014   8.297  0.0191  1.7350  0.5468
13982SOL     OW43139   6.753   5.158   1.017 -0.0425  0.3199 -0.0108
13982SOL    HW143140   6.751   5.233   1.075 -1.3511 -0.2381  0.7109
13982SOL    HW243141   6.789   5.087   1.069 -1.8380 -0.3542  0.3942
13983SOL     OW43142   6.221   1.622   1.559  0.1964  0.5340 -0.2752
13983SOL    HW143143   6.127   1.618   1.546  0.2311  0.8471 -0.6490
13983SOL    HW243144   6.232   1.633   1.654 -0.1262  0.1232 -0.1909
13984SOL     OW43145   4.733   8.395   8.042  0.7820  0.2352 -0.5131
13984SOL    HW143146   4.667   8.352   7.987  0.3807  0.3588 -0.1354
13984SOL    HW243147   4.720   8.357   8.128  0.4278  1.1133 -0.1733
13985SOL     OW43148   7.519   0.410   5.856 -0.1954  0.8124 -0.2411
13985SOL    HW143149   7.492   0.498   5.884  1.7127  1.6100 -0.8122
13985SOL    HW243150   7.453   0.385   5.792 -1.6922  1.1139  1.1065
13986SOL     OW43151   3.645   6.766   7.440 -0.5913 -0.3928  0.0299
13986SOL    HW143152   3.552   6.785   7.435 -0.5343  0.5301  1.8753
13986SOL    HW243153   3.681   6.801   7.358 -1.9004 -1.2092 -0.9321
13987SOL     OW43154   0.724   8.487   5.761 -0.5429 -0.1696 -0.1401
13987SOL    HW143155   0.721   8.392   5.761 -0.4461 -0.2112  1.7577
13987SOL    HW243156   0.800   8.509   5.707 -0.0828 -1.1854  0.0746
13988SOL     OW43157   6.516   6.133   5.820  0.4517 -0.2651  0.1416
13988SOL    HW143158   6.607   6.147   5.847  0.5008 -0.9200  0.3369
13988SOL    HW243159   6.497   6.206   5.761  0.5336  0.8635  1.4478
13989SOL     OW43160   3.455   1.592   7.802 -0.1300 -0.1337  0.1308
13989SOL    HW143161   3.482   1.683   7.818  0.2262 -0.3411  0.7112
13989SOL    HW243162   3.469   1.548   7.886 -0.5850 -0.6592 -0.0656
13990SOL     OW43163   6.208   1.810   3.786  0.2170  0.6179  0.5303
13990SOL    HW143164   6.243   1.794   3.873  0.0850  1.5017  0.7579
13990SOL    HW243165   6.259   1.752   3.728  0.6268  0.3767  1.1255
13991SOL     OW43166   6.899   3.549   4.931  0.3298  0.3286 -0.3943
13991SOL    HW143167   6.878   3.641   4.915 -0.1392  0.1376 -0.8650
13991SOL    HW243168   6.826   3.517   4.984  0.0541  0.0003 -0.9655
13992SOL     OW43169   4.606   1.275   7.799 -0.4437 -0.1898 -0.6406
13992SOL    HW143170   4.590   1.356   7.752 -1.9894 -0.0473  0.0912
13992SOL    HW243171   4.650   1.303   7.880 -0.1288 -0.1852 -0.8111
13993SOL     OW43172   0.787   8.445   5.433 -0.0854 -0.2261  0.0058
13993SOL    HW143173   0.869   8.481   5.398  0.5881 -1.7719 -0.0627
13993SOL    HW243174   0.814   8.398   5.512 -0.6250 -2.2166 -0.9413
13994SOL     OW43175   8.277   5.501   2.391 -0.4903 -0.3814 -0.1946
13994SOL    HW143176   8.349   5.522   2.450 -0.8236 -1.6158  0.6812
13994SOL    HW243177   8.204   5.555   2.423 -0.2602  0.0668 -0.4168
13995SOL     OW43178   8.399   2.254   1.954 -0.3752 -0.0032 -0.1920
13995SOL    HW143179   8.415   2.334   1.904  1.7687  0.5701  1.2384
13995SOL    HW243180   8.436   2.273   2.041 -0.8455 -2.1494  0.5341
13996SOL     OW43181   3.379   8.249   6.021 -0.3758  0.0626  0.4731
13996SOL    HW143182   3.355   8.160   5.995  0.2091 -0.2025  0.8149
13996SOL    HW243183   3.451   8.237   6.083  0.8438  0.8347 -0.7587
13997SOL     OW43184   7.492   0.455   7.957  0.2226  0.2095  0.6539
13997SOL    HW143185   7.520   0.365   7.974 -3.2711 -0.6427  3.1695
13997SOL    HW243186   7.479   0.492   8.045 -3.1269  1.3937 -0.1869
13998SOL     OW43187   6.211   1.286   7.573  0.1149 -0.0655  0.0249
13998SOL    HW143188   6.258   1.214   7.614  0.3276 -0.5282 -0.9940
13998SOL    HW243189   6.280   1.347   7.547 -0.0455  0.3969  0.6613
13999SOL     OW43190   6.686   8.070   6.682 -0.1125  0.6621 -0.0135
13999SOL    HW143191   6.675   8.001   6.747 -3.1283 -2.0882 -3.0707
13999SOL    HW243192   6.747   8.033   6.617 -1.8408  0.6811 -1.7476
14000SOL     OW43193   3.677   6.632   5.033  0.3629 -0.6484  0.7274
14000SOL    HW143194   3.712   6.584   4.958 -0.3786 -1.5299  0.9311
14000SOL    HW243195   3.735   6.708   5.042 -0.0694 -0.0242 -1.3006
14001SOL     OW43196   1.106   8.053   6.163  1.0526 -0.1723  0.5213
14001SOL    HW143197   1.062   8.106   6.097  1.9541 -0.6982 -0.5399
14001SOL    HW243198   1.111   8.110   6.240  0.8744  0.8291 -0.1885
14002SOL     OW43199   3.338   1.802   5.739 -0.2094  0.1261 -0.1673
14002SOL    HW143200   3.389   1.810   5.658 -0.4886  0.0376 -0.3519
14002SOL    HW243201   3.370   1.874   5.794  3.1019 -2.2681  1.3950
14003SOL     OW43202   7.771   8.260   1.406 -0.2189  0.0884  0.9505
14003SOL    HW143203   7.803   8.179   1.366 -3.1927 -0.0915 -1.4501
14003SOL    HW243204   7.768   8.322   1.333 -0.6508  1.5035  2.1366
14004SOL     OW43205   6.185   0.877   5.873  0.6017 -0.2693  0.3322
14004SOL    HW143206   6.195   0.833   5.958  1.0842  0.3901  0.6208
14004SOL    HW243207   6.259   0.845   5.822  0.4651 -0.4547  0.2494
14005SOL     OW43208   5.096   5.429   7.144  0.2244  0.2632  0.2967
14005SOL    HW143209   5.048   5.391   7.071  2.8672 -0.4953 -1.1321
14005SOL    HW243210   5.104   5.522   7.122  0.3838  0.1792  0.0108
14006SOL     OW43211   5.750   7.806   5.839 -1.0556  0.1682  0.5098
14006SOL    HW143212   5.757   7.778   5.747  2.2727  0.5312  0.5362
14006SOL    HW243213   5.679   7.752   5.875 -0.9370 -1.6339 -1.7144
14007SOL     OW43214   1.047   3.164   5.306 -0.1280 -0.0540 -0.2811
14007SOL    HW143215   1.109   3.236   5.313 -0.6441  0.4613 -0.8947
14007SOL    HW243216   1.037   3.131   5.395 -1.0176  1.5951  0.2574
14008SOL     OW43217   3.591   5.620   7.803  0.4530 -0.5844 -0.0365
14008SOL    HW143218   3.662   5.557   7.805  0.2117 -0.8436  1.8752
14008SOL    HW243219   3.599   5.663   7.718  2.3157 -1.2507 -0.2257
14009SOL     OW43220   1.819   5.963   7.474 -0.2746 -0.2882  0.3872
14009SOL    HW143221   1.887   5.911   7.517 -1.1614 -1.2845  0.6391
14009SOL    HW243222   1.800   6.034   7.535  0.9272  0.3383  0.0583
14010SOL     OW43223   3.448   5.996   6.900  0.0050  0.2669 -0.4258
14010SOL    HW143224   3.434   5.984   6.994 -1.2411  1.0112 -0.4850
14010SOL    HW243225   3.365   6.033   6.869 -0.7821 -2.7921 -2.3748
14011SOL     OW43226   0.484   8.266   0.970  0.0401 -0.5884  0.4547
14011SOL    HW143227   0.487   8.177   0.936  0.2246  0.0315 -1.2380
14011SOL    HW243228   0.573   8.284   0.999 -0.5061 -1.7558  3.0949
14012SOL     OW43229   5.451   1.480   7.703  0.1358 -0.1199 -0.3881
14012SOL    HW143230   5.468   1.540   7.630  0.1868 -0.5312 -0.7132
14012SOL    HW243231   5.526   1.492   7.762  0.8655 -0.8909 -1.1374
14013SOL     OW43232   5.160   7.089   4.056 -0.3313  0.4757 -0.4230
14013SOL    HW143233   5.173   7.130   4.142  0.7305 -4.0280  1.9046
14013SOL    HW243234   5.078   7.041   4.065 -0.3200  0.0938 -2.0371
14014SOL     OW43235   7.684   5.131   2.334  0.6381 -0.3449  0.0960
14014SOL    HW143236   7.773   5.122   2.302  0.3127 -0.0014 -0.9453
14014SOL    HW243237   7.667   5.049   2.381  1.2662 -0.6953 -0.2805
14015SOL     OW43238   0.889   0.071   3.928 -0.0982 -0.0343  0.3115
14015SOL    HW143239   0.975   0.074   3.969  1.3465  0.4647 -2.4778
14015SOL    HW243240   0.843   0.149   3.961  0.1731 -0.7183  2.4066
14016SOL     OW43241   7.972   7.084   7.653  0.0013 -0.0769  0.4366
14016SOL    HW143242   7.927   7.008   7.616 -0.9923  0.5716  0.2884
14016SOL    HW243243   7.957   7.154   7.590  1.6615  0.0454  0.1383
14017SOL     OW43244   8.395   6.575   8.378  0.1628 -0.5439  0.1506
14017SOL    HW143245   8.458   6.580   8.307 -1.2717 -2.4473 -1.3586
14017SOL    HW243246   8.398   6.483   8.406 -0.6073 -0.2306  1.3379
14018SOL     OW43247   4.246   6.955   0.984  0.7386  0.3980 -0.2018
14018SOL    HW143248   4.232   6.964   0.889 -0.4219 -1.1004 -0.2025
14018SOL    HW243249   4.169   6.996   1.023  0.9294  0.4785  0.0930
14019SOL     OW43250   7.553   2.638   7.577 -0.2194  0.4808 -0.2295
14019SOL    HW143251   7.494   2.712   7.566  0.7604  1.0331 -2.3018
14019SOL    HW243252   7.502   2.562   7.547 -1.8109 -0.1147  3.4213
14020SOL     OW43253   4.436   6.387   3.459  0.3196  0.4369  0.3638
14020SOL    HW143254   4.495   6.460   3.474 -1.4186  1.7461  1.1875
14020SOL    HW243255   4.404   6.399   3.369  1.6684 -0.5922 -0.2873
14021SOL     OW43256   8.458   3.911   8.327  0.4415 -0.2851 -0.1529
14021SOL    HW143257   8.374   3.926   8.370  0.9951  1.5709  0.3797
14021SOL    HW243258   8.493   3.832   8.367 -0.8695 -0.8569 -0.1128
14022SOL     OW43259   6.445   1.731   6.082 -0.3674  0.3143  0.2064
14022SOL    HW143260   6.539   1.744   6.089 -0.5398  1.5053  0.6899
14022SOL    HW243261   6.417   1.792   6.014 -0.6900 -0.6164 -0.5108
14023SOL     OW43262   3.704   5.636   0.010 -0.1147 -0.1043  0.2267
14023SOL    HW143263   3.626   5.595   0.046  0.2020 -0.2466  0.7704
14023SOL    HW243264   3.673   5.718  -0.027 -0.1060  1.4444  3.3038
14024SOL     OW43265   5.838   1.105   3.774 -0.3867 -0.7518 -0.0436
14024SOL    HW143266   5.889   1.129   3.696 -0.2259 -0.4103  0.1682
14024SOL    HW243267   5.820   1.187   3.819  0.7849 -1.0650  1.0626
14025SOL     OW43268   0.667   1.533   7.553 -0.3353  0.1028  0.2739
14025SOL    HW143269   0.677   1.606   7.491 -0.5366  0.7768  1.0199
14025SOL    HW243270   0.658   1.455   7.497 -0.4931  0.6933 -0.5405
14026SOL     OW43271   1.714   7.594   4.500  0.0899  0.2680  0.1381
14026SOL    HW143272   1.744   7.645   4.425  2.9105  0.4740  1.2722
14026SOL    HW243273   1.680   7.513   4.463  1.5302  0.3206 -1.3811
14027SOL     OW43274   5.445   3.157   7.648 -0.5675  0.5095  0.1695
14027SOL    HW143275   5.490   3.218   7.707  0.0809 -0.7195  0.9910
14027SOL    HW243276   5.505   3.146   7.574  0.5135 -1.0906  1.2418
14028SOL     OW43277   0.688   1.382   3.215  0.3859  0.3983 -0.2371
14028SOL    HW143278   0.647   1.438   3.281 -0.8915 -0.8676  0.0812
14028SOL    HW243279   0.619   1.323   3.187  1.1707  0.2758 -2.0295
14029SOL     OW43280   6.468   6.067   2.986 -0.2076 -0.2647 -0.3113
14029SOL    HW143281   6.439   6.010   3.057 -0.5905 -1.1216 -1.1383
14029SOL    HW243282   6.397   6.132   2.978  0.4551  0.6600  0.9518
14030SOL     OW43283   4.830   5.113   6.273  1.1049 -0.4282 -0.0472
14030SOL    HW143284   4.796   5.199   6.247 -2.0142 -1.7556 -0.7674
14030SOL    HW243285   4.898   5.094   6.208  0.0273  0.4059 -1.4649
14031SOL     OW43286   1.033   2.310   6.293  0.1863  0.3670  0.0720
14031SOL    HW143287   1.020   2.244   6.361  1.7505 -0.3804 -0.3110
14031SOL    HW243288   1.079   2.264   6.223  0.8924  1.7460 -0.4102
14032SOL     OW43289   8.366   8.581   0.616 -0.3707  0.0772 -0.1633
14032SOL    HW143290   8.451   8.616   0.589 -1.6574  3.0292 -0.7140
14032SOL    HW243291   8.349   8.622   0.701 -2.0978  1.1830 -0.9897
14033SOL     OW43292   3.315   1.186   2.213 -0.3837  0.1050  0.6123
14033SOL    HW143293   3.331   1.092   2.218  1.1843  0.3316  0.2952
14033SOL    HW243294   3.321   1.216   2.303 -0.7042 -0.0532  0.6909
14034SOL     OW43295   1.338   5.709   3.280  0.3025  0.2974  0.2339
14034SOL    HW143296   1.308   5.691   3.370  1.5874 -0.3251  0.5555
14034SOL    HW243297   1.433   5.704   3.285  0.3626 -0.7248 -1.3721
14035SOL     OW43298   0.675   2.965   0.385  0.4204  0.2615 -0.3109
14035SOL    HW143299   0.640   2.894   0.332  1.1849 -0.5504  0.2603
14035SOL    HW243300   0.767   2.945   0.396  0.2939  0.4451  1.2752
14036SOL     OW43301   3.924   6.783   4.121  0.6272 -0.4135  0.0420
14036SOL    HW143302   4.010   6.823   4.105 -0.5417  1.4247 -2.1481
14036SOL    HW243303   3.898   6.747   4.036 -0.9533 -0.5483  0.5500
14037SOL     OW43304   1.783   4.308   2.544  0.4537 -0.2485  0.5826
14037SOL    HW143305   1.848   4.360   2.498  1.1168 -1.3742  0.2227
14037SOL    HW243306   1.833   4.263   2.612 -0.1808 -0.1454  1.1300
14038SOL     OW43307   6.098   2.322   4.727 -0.3794 -0.5563  0.1710
14038SOL    HW143308   6.137   2.309   4.813  0.8755  0.2813 -0.2386
14038SOL    HW243309   6.059   2.410   4.731 -0.8951 -0.7770  0.0862
14039SOL     OW43310   2.948   3.635   6.733  0.7544 -0.3916 -0.7126
14039SOL    HW143311   2.915   3.559   6.782  0.2156  0.1143 -0.2683
14039SOL    HW243312   2.955   3.704   6.799 -0.7759  0.5426 -1.4646
14040SOL     OW43313   1.285   3.630   1.251  0.0657  0.6273 -0.0327
14040SOL    HW143314   1.273   3.636   1.346  0.2154  1.4004 -0.0519
14040SOL    HW243315   1.206   3.588   1.219 -0.0871  0.5702  0.4101
14041SOL     OW43316   3.269   0.539   1.040  0.1934  0.3385  0.0971
14041SOL    HW143317   3.301   0.535   0.950  0.4785 -1.5890  0.2432
14041SOL    HW243318   3.213   0.462   1.050  4.0689 -2.5308  2.9075
14042SOL     OW43319   6.588   7.310   5.607 -0.6236 -0.1186 -0.8645
14042SOL    HW143320   6.510   7.305   5.663 -0.1238 -0.6981 -0.1961
14042SOL    HW243321   6.660   7.284   5.665  0.2277  1.4553 -1.1531
14043SOL     OW43322   2.822   1.132   5.791  0.7054 -0.0028 -0.0271
14043SOL    HW143323   2.784   1.047   5.769 -1.1112  0.4253  1.2697
14043SOL    HW243324   2.844   1.125   5.884  2.1020  0.4048 -0.3097
14044SOL     OW43325   6.318   0.189   0.468  0.8843 -0.6063  0.4521
14044SOL    HW143326   6.342   0.226   0.553  0.9443 -0.2422  0.2791
14044SOL    HW243327   6.355   0.250   0.404 -0.5290  0.0245  0.1796
14045SOL     OW43328   4.851   0.372   3.867 -0.4131 -0.3835 -0.6431
14045SOL    HW143329   4.809   0.458   3.871 -0.9158 -0.6646  1.2065
14045SOL    HW243330   4.794   0.319   3.811 -0.4172  0.3180 -1.3076
14046SOL     OW43331   4.817   7.908   4.921 -0.4777  0.7866 -0.3520
14046SOL    HW143332   4.787   7.873   4.838 -1.3727  0.5640  0.0474
14046SOL    HW243333   4.906   7.939   4.904 -0.0412 -0.7424 -0.9684
14047SOL     OW43334   2.477   7.894   2.998 -0.2594  0.5461 -0.5540
14047SOL    HW143335   2.435   7.811   3.023  3.0777 -0.6843  1.7818
14047SOL    HW243336   2.529   7.872   2.922  1.8978 -0.0883  1.0113
14048SOL     OW43337   2.261   1.236   4.253 -0.6171 -0.4325 -0.4863
14048SOL    HW143338   2.283   1.167   4.317 -1.6333 -1.4963 -1.2388
14048SOL    HW243339   2.305   1.208   4.173  0.5824  0.8524 -0.3203
14049SOL     OW43340   1.016   7.896   3.800  0.0725  0.5278  0.7744
14049SOL    HW143341   1.000   7.804   3.779  0.2000  0.5662  0.5054
14049SOL    HW243342   1.102   7.897   3.842  0.6930  0.6863 -0.4505
14050SOL     OW43343   6.117   6.476   5.421 -0.5722  0.1969  0.5538
14050SOL    HW143344   6.119   6.567   5.392 -0.0575  0.4734  1.4183
14050SOL    HW243345   6.085   6.427   5.345 -1.2988  1.1495  0.2220
14051SOL     OW43346   6.311   2.646   8.000 -0.1992 -0.4224 -0.0721
14051SOL    HW143347   6.219   2.660   7.980 -0.4103 -0.1961  0.9716
14051SOL    HW243348   6.359   2.687   7.928 -0.9005 -0.0506 -0.3333
14052SOL     OW43349   2.532   1.719   7.968 -0.2837 -0.2029  0.0747
14052SOL    HW143350   2.532   1.750   8.059 -1.1213  1.6782 -0.5174
14052SOL    HW243351   2.623   1.695   7.951  0.3839  1.6681  0.7241
14053SOL     OW43352   1.967   0.581   5.201  0.2444 -0.1169  0.1669
14053SOL    HW143353   2.007   0.612   5.282  0.9496  0.7670 -0.4981
14053SOL    HW243354   2.001   0.492   5.190  0.2775 -0.1802  0.7459
14054SOL     OW43355   0.773   5.001   6.461 -0.5212 -0.1389  0.0324
14054SOL    HW143356   0.714   4.978   6.533 -2.3231  1.8707 -0.6896
14054SOL    HW243357   0.859   4.971   6.490 -1.1910  0.4581  2.9752
14055SOL     OW43358   0.654   2.980   5.531  0.3570  0.4922  0.2012
14055SOL    HW143359   0.592   2.944   5.467  1.7509  0.8473 -1.4281
14055SOL    HW243360   0.636   3.074   5.531  1.2247  0.6777 -0.7094
14056SOL     OW43361   8.255   0.155   1.975 -0.2410 -0.3423 -0.1644
14056SOL    HW143362   8.168   0.190   1.956  1.1454  2.3086 -2.3225
14056SOL    HW243363   8.246   0.115   2.062 -3.5325 -0.1170 -0.2499
14057SOL     OW43364   7.789   3.331   6.525 -0.2861  0.5942  0.4606
14057SOL    HW143365   7.835   3.293   6.600  0.9296  1.7533  0.3397
14057SOL    HW243366   7.812   3.275   6.451 -1.3717 -0.4672  0.8925
14058SOL     OW43367   2.471   4.078   3.371  0.4915  1.0152  0.1379
14058SOL    HW143368   2.566   4.073   3.364  0.6497  0.2326  2.2335
14058SOL    HW243369   2.439   4.042   3.288  2.0145 -0.3689  0.1022
14059SOL     OW43370   8.336   2.559   7.225  0.1312 -0.4225  0.0302
14059SOL    HW143371   8.256   2.603   7.254  0.8106  1.6936 -1.0434
14059SOL    HW243372   8.308   2.503   7.152 -0.4295  0.0055 -0.0840
14060SOL     OW43373   5.899   3.736   0.374  0.4701 -0.2849 -0.7181
14060SOL    HW143374   5.803   3.730   0.365  0.3911 -1.8565  0.7471
14060SOL    HW243375   5.915   3.828   0.395 -0.8915 -0.3040  0.6047
14061SOL     OW43376   7.508   1.485   7.196 -0.1942  0.1732 -0.0441
14061SOL    HW143377   7.489   1.559   7.255 -0.1938  0.7378 -0.7402
14061SOL    HW243378   7.604   1.487   7.187 -0.2303  0.3318 -0.3795
14062SOL     OW43379   1.498   3.508   5.587  0.1000 -0.2992  0.1833
14062SOL    HW143380   1.535   3.592   5.615 -0.7421  0.1932 -0.1386
14062SOL    HW243381   1.521   3.502   5.494  1.3073 -1.0683  0.5066
14063SOL     OW43382   2.275   0.590   5.548 -0.0414  0.6211  0.4546
14063SOL    HW143383   2.347   0.542   5.590 -1.6818 -0.9412  1.6724
14063SOL    HW243384   2.252   0.658   5.612 -1.0881 -0.3330  1.1197
14064SOL     OW43385   0.657   5.598   6.549  0.0698  0.1926 -0.5783
14064SOL    HW143386   0.707   5.589   6.469 -0.1325  0.6064 -0.7555
14064SOL    HW243387   0.600   5.673   6.533 -0.0822  0.1801 -0.1077
14065SOL     OW43388   1.653   3.250   2.997  0.8873 -0.0038  0.0588
14065SOL    HW143389   1.704   3.323   2.961 -0.4604  1.2427  0.5743
14065SOL    HW243390   1.638   3.193   2.922 -0.6142  1.8029 -1.0981
14066SOL     OW43391   4.681   7.856   2.630  0.0836  0.2855  0.1691
14066SOL    HW143392   4.707   7.920   2.564 -0.6904  0.5267  0.0831
14066SOL    HW243393   4.652   7.908   2.705 -0.7485  0.0621  0.0214
14067SOL     OW43394   2.286   7.402   7.309 -0.0972 -0.5311 -0.7509
14067SOL    HW143395   2.347   7.339   7.349 -0.7779 -0.7229  0.0260
14067SOL    HW243396   2.206   7.352   7.296 -0.2718 -0.1303 -1.2373
14068SOL     OW43397   3.868   0.912   1.869  0.3523  0.0714  0.3001
14068SOL    HW143398   3.912   0.840   1.913  0.5608 -0.0878 -0.1571
14068SOL    HW243399   3.790   0.928   1.921 -0.8790 -1.9651 -0.7984
14069SOL     OW43400   8.151   1.506   2.239 -0.2524  0.2131  0.9698
14069SOL    HW143401   8.222   1.503   2.174  0.4667  1.1063  1.7018
14069SOL    HW243402   8.084   1.447   2.203 -0.1459  1.1658 -0.9082
14070SOL     OW43403   5.301   8.338   1.863  0.5026  0.4809  0.3229
14070SOL    HW143404   5.226   8.327   1.921 -0.2217 -1.9055 -0.8996
14070SOL    HW243405   5.330   8.428   1.876 -1.4990  0.9338  2.0958
14071SOL     OW43406   8.187   5.391   3.333 -0.1616 -0.4893  0.4817
14071SOL    HW143407   8.096   5.381   3.305 -0.0849 -1.4314  0.5271
14071SOL    HW243408   8.182   5.449   3.409 -0.5238  0.8586 -0.5389
14072SOL     OW43409   2.179   1.102   4.831  0.3700 -0.1590  0.2987
14072SOL    HW143410   2.252   1.095   4.770  1.6479  0.9324  1.6493
14072SOL    HW243411   2.219   1.120   4.916 -1.4445  0.0160  1.1737
14073SOL     OW43412   6.962   2.474   0.492  0.2767  0.1250  0.6133
14073SOL    HW143413   6.884   2.508   0.536  0.2742  0.4793  0.3457
14073SOL    HW243414   6.974   2.386   0.527  0.2447  0.3817  1.2757
14074SOL     OW43415   2.328   0.033   8.133 -0.7020  0.4447  0.3452
14074SOL    HW143416   2.350   0.085   8.056 -1.2022 -0.6286 -0.5502
14074SOL    HW243417   2.344   0.091   8.207  0.4694  1.2726 -0.5227
14075SOL     OW43418   4.424   2.781   8.463 -0.1484 -0.1148 -0.1769
14075SOL    HW143419   4.493   2.799   8.528 -0.0245 -1.4692  0.0941
14075SOL    HW243420   4.351   2.837   8.491 -0.2988 -1.0683  1.4805
14076SOL     OW43421   7.195   4.748   4.133 -0.5269 -0.2479  0.7502
14076SOL    HW143422   7.288   4.734   4.152 -0.3172 -0.9590 -0.6466
14076SOL    HW243423   7.152   4.667   4.161 -0.6374 -0.1438  0.8812
14077SOL     OW43424   7.073   1.988   3.733 -0.6025  0.4106  0.2496
14077SOL    HW143425   7.068   2.063   3.792 -0.4504 -1.2053  2.4790
14077SOL    HW243426   7.167   1.968   3.728 -0.4781  1.2499 -1.6172
14078SOL     OW43427   8.406   1.600   5.265  0.2024 -0.4861 -0.3051
14078SOL    HW143428   8.446   1.682   5.234 -0.5925  0.8270  1.9018
14078SOL    HW243429   8.480   1.549   5.298  0.5285  0.1372 -0.0407
14079SOL     OW43430   0.196   7.741   7.888  0.5364  0.3840  0.1128
14079SOL    HW143431   0.111   7.781   7.870  0.5861  1.5598  2.2734
14079SOL    HW243432   0.260   7.804   7.853  0.5564  1.0105  1.2359
14080SOL     OW43433   0.434   4.741   3.022  0.0417  0.2472 -0.2092
14080SOL    HW143434   0.436   4.832   2.993  0.2111  0.4816  0.5221
14080SOL    HW243435   0.397   4.745   3.110 -0.1201 -0.4126 -0.2435
14081SOL     OW43436   6.423   4.317   1.247 -0.4523 -0.4790  0.3990
14081SOL    HW143437   6.406   4.398   1.200  1.1133 -0.1935  0.2808
14081SOL    HW243438   6.451   4.345   1.335  3.0663 -0.6496 -0.5139
14082SOL     OW43439   2.714   7.344   3.926  0.3052 -0.5146  0.2629
14082SOL    HW143440   2.633   7.391   3.911 -0.8493 -2.7034 -0.8686
14082SOL    HW243441   2.731   7.355   4.020 -0.2395  1.5140  0.1637
14083SOL     OW43442   3.384   4.486   7.112  0.1128 -0.4297  0.1762
14083SOL    HW143443   3.367   4.557   7.173 -0.1518 -0.8653  0.6147
14083SOL    HW243444   3.417   4.529   7.033 -2.6591  0.4552 -0.6221
14084SOL     OW43445   5.564   8.411   5.082 -0.2061 -0.2278  0.3090
14084SOL    HW143446   5.500   8.421   5.011  0.8962 -0.6833 -0.7950
14084SOL    HW243447   5.576   8.499   5.117 -1.6528 -0.1904  0.7455
14085SOL     OW43448   1.729   6.274   7.477 -0.1633 -0.1180  0.0581
14085SOL    HW143449   1.683   6.358   7.478 -0.0711 -0.0675  0.2601
14085SOL    HW243450   1.706   6.234   7.561  1.2705  0.5172  0.7888
14086SOL     OW43451   3.690   3.368   0.915 -0.1580  0.4105 -0.3245
14086SOL    HW143452   3.602   3.371   0.877  0.0896  1.1311 -0.8640
14086SOL    HW243453   3.748   3.384   0.841  0.6022 -2.5747 -0.4939
14087SOL     OW43454   3.419   1.366   0.022 -0.5630 -0.0811 -0.1285
14087SOL    HW143455   3.433   1.454  -0.011  1.9918 -0.7199 -0.9935
14087SOL    HW243456   3.434   1.372   0.116  2.3526  0.0300 -0.4997
14088SOL     OW43457   5.454   7.959   4.951  0.2759  0.4888  0.3477
14088SOL    HW143458   5.404   7.961   4.870 -0.7454  3.2753  0.9127
14088SOL    HW243459   5.536   7.914   4.929 -0.3227  0.4289 -1.9590
14089SOL     OW43460   6.394   6.527   5.793  0.2559  0.4301  0.5184
14089SOL    HW143461   6.469   6.498   5.844 -0.6517  0.1368  1.7343
14089SOL    HW243462   6.365   6.449   5.746  1.1262  0.7130 -0.5099
14090SOL     OW43463   1.559   3.141   3.793 -0.1922  0.0276 -0.1755
14090SOL    HW143464   1.648   3.125   3.764 -1.0640 -0.1608 -3.0627
14090SOL    HW243465   1.568   3.170   3.884  2.7815  0.1473 -0.4126
14091SOL     OW43466   0.238   0.786   0.774 -0.0038  0.3910  0.0966
14091SOL    HW143467   0.165   0.813   0.830 -0.5892 -0.9697  0.0452
14091SOL    HW243468   0.313   0.781   0.833  0.4305  3.0986 -0.0947
14092SOL     OW43469   3.345   8.404   7.040 -0.2360  0.7793  0.2083
14092SOL    HW143470   3.335   8.403   7.135 -0.0873  0.1268  0.2265
14092SOL    HW243471   3.293   8.478   7.011  1.8214  2.6655  1.0151
14093SOL     OW43472   5.021   6.264   2.534 -0.2554 -0.3191  0.1572
14093SOL    HW143473   4.990   6.354   2.547  1.4232 -0.0323  3.1776
14093SOL    HW243474   5.057   6.264   2.445 -0.8981  1.7968 -0.1675
14094SOL     OW43475   0.504   0.221   7.138  0.0704  0.1586 -0.6140
14094SOL    HW143476   0.564   0.169   7.190 -0.3455 -0.2842 -0.5716
14094SOL    HW243477   0.425   0.227   7.192  0.2153  1.0866 -0.4882
14095SOL     OW43478   1.131   4.713   2.041  0.5872 -0.1277  0.0688
14095SOL    HW143479   1.206   4.732   2.097  0.4425  2.7281 -0.5476
14095SOL    HW243480   1.056   4.748   2.089 -0.3507 -2.3663  0.3849
14096SOL     OW43481   2.960   1.582   4.972 -0.0589 -0.3995 -0.2200
14096SOL    HW143482   2.963   1.652   5.037  2.3746 -1.6511  1.1737
14096SOL    HW243483   2.883   1.601   4.919 -2.7325  0.1958  3.5288
14097SOL     OW43484   4.075   6.483   0.538  0.2108  0.1510  0.0393
14097SOL    HW143485   4.104   6.529   0.459  0.2513 -0.2963 -0.2099
14097SOL    HW243486   4.142   6.415   0.552  0.1155  0.1206  0.3626
14098SOL     OW43487   3.112   1.413   1.455  0.4091  0.0668 -0.3396
14098SOL    HW143488   3.017   1.408   1.455  0.3996  0.2609 -0.1909
14098SOL    HW243489   3.132   1.502   1.484  0.6553 -1.0390  3.5528
14099SOL     OW43490   2.714   6.877   4.035 -0.0190 -0.1488 -0.1469
14099SOL    HW143491   2.682   6.965   4.051  0.6109  0.5065 -2.1946
14099SOL    HW243492   2.732   6.842   4.122 -2.1958  0.9698  0.8148
14100SOL     OW43493   5.881   6.586   5.019 -0.4986 -0.1212  0.3455
14100SOL    HW143494   5.850   6.672   4.989 -0.0146 -0.4796 -1.2656
14100SOL    HW243495   5.849   6.580   5.109  0.4066  2.2175  0.9003
14101SOL     OW43496   4.547   2.207   6.508 -0.7086  0.6119  1.0755
14101SOL    HW143497   4.538   2.301   6.525 -1.9593  0.8899 -0.8518
14101SOL    HW243498   4.470   2.184   6.456  1.4823 -0.6049 -1.9072
14102SOL     OW43499   8.570   2.142   0.908  0.4660 -0.0478 -0.1736
14102SOL    HW143500   8.530   2.217   0.864  1.4035  1.0677  0.7906
14102SOL    HW243501   8.643   2.117   0.851  0.6816  0.3461 -0.0770
14103SOL     OW43502   4.284   1.787   4.521 -0.3527 -0.1445  0.3358
14103SOL    HW143503   4.229   1.815   4.595 -0.5465 -0.1320  0.1874
14103SOL    HW243504   4.226   1.791   4.445 -0.1350 -0.0970  0.1712
14104SOL     OW43505   3.441   7.306   5.856  0.3428 -0.9161 -0.4065
14104SOL    HW143506   3.472   7.305   5.947  0.3472 -3.7517 -0.3601
14104SOL    HW243507   3.404   7.394   5.845  1.1433 -0.1794  2.0368
14105SOL     OW43508   1.225   3.181   3.934 -0.2283 -0.0248  0.0407
14105SOL    HW143509   1.171   3.138   4.000  0.6513 -2.0369 -0.4974
14105SOL    HW243510   1.276   3.111   3.894 -0.7103  1.0927 -2.7924
14106SOL     OW43511   1.848   0.377   0.490 -0.1833 -0.3282 -0.0608
14106SOL    HW143512   1.868   0.470   0.503  0.0790 -0.3534 -0.2922
14106SOL    HW243513   1.763   0.365   0.533  0.4520 -0.3023  1.2545
14107SOL     OW43514   6.642   4.835   3.788 -0.0906 -0.9817 -0.0699
14107SOL    HW143515   6.675   4.924   3.776  0.4668 -1.2810 -0.7810
14107SOL    HW243516   6.621   4.831   3.882  2.2549 -0.8898  0.5331
14108SOL     OW43517   5.560   6.362   2.230  0.2198 -0.0849 -0.0018
14108SOL    HW143518   5.626   6.308   2.274  0.7565  0.8528  0.3826
14108SOL    HW243519   5.578   6.451   2.261 -0.3736  0.3784 -0.9466
14109SOL     OW43520   4.682   5.151   5.347  0.6554 -0.4852 -0.3740
14109SOL    HW143521   4.676   5.229   5.293 -1.2078 -0.1295  0.2701
14109SOL    HW243522   4.652   5.180   5.434  1.0820 -1.6424  0.1783
14110SOL     OW43523   0.941   8.522   0.476  0.2432  0.0662 -0.2527
14110SOL    HW143524   0.981   8.575   0.545 -0.3510 -0.7725  0.7581
14110SOL    HW243525   0.856   8.563   0.459  0.4551  0.3652 -0.6106
14111SOL     OW43526   8.173   7.568   4.742  0.6034  0.1310 -0.1328
14111SOL    HW143527   8.194   7.629   4.671 -0.1590  1.1505  0.4914
14111SOL    HW243528   8.257   7.543   4.779  0.9075  1.1694 -0.1123
14112SOL     OW43529   1.462   0.860   1.166 -0.2389  0.1465  0.4843
14112SOL    HW143530   1.418   0.916   1.230 -0.0127 -1.1935  1.8734
14112SOL    HW243531   1.503   0.791   1.218 -1.6346 -2.1216 -1.2192
14113SOL     OW43532   5.377   4.582   7.277  0.2566  0.0773  0.0910
14113SOL    HW143533   5.422   4.547   7.354  0.0697 -0.5495 -0.0828
14113SOL    HW243534   5.353   4.671   7.303  2.6023  0.8642 -0.2305
14114SOL     OW43535   0.106   2.474   1.199 -0.0055 -0.4387  0.4897
14114SOL    HW143536   0.176   2.535   1.219 -1.9849  2.2975 -0.3544
14114SOL    HW243537   0.117   2.454   1.106 -1.4463  1.7253 -0.2288
14115SOL     OW43538   7.381   2.561   7.291  0.6695 -0.0995 -0.5192
14115SOL    HW143539   7.462   2.605   7.266  0.6740  0.9697  1.2577
14115SOL    HW243540   7.322   2.632   7.318  0.1556 -1.0506  0.9920
14116SOL     OW43541   6.136   7.850   5.972  0.2933 -0.0315 -0.3485
14116SOL    HW143542   6.189   7.855   6.051  1.4023 -1.1883 -0.9740
14116SOL    HW243543   6.051   7.887   5.997  1.4366  2.0814  0.6089
14117SOL     OW43544   5.210   2.599   2.627 -0.2084  0.0596 -0.0090
14117SOL    HW143545   5.149   2.550   2.572 -0.3267  0.8823 -0.6227
14117SOL    HW243546   5.296   2.566   2.600 -0.3743 -1.8279  1.5577
14118SOL     OW43547   3.730   4.900   7.772  0.3371 -0.1413 -0.0409
14118SOL    HW143548   3.677   4.924   7.847  0.2386  0.6283 -0.3491
14118SOL    HW243549   3.668   4.896   7.699  0.1493 -2.3435  0.1452
14119SOL     OW43550   1.476   2.385   2.382 -1.0648  0.2798  0.3927
14119SOL    HW143551   1.544   2.331   2.341 -0.9869 -1.2683  2.4373
14119SOL    HW243552   1.395   2.361   2.337 -0.3621  2.3242 -2.2471
14120SOL     OW43553   2.687   3.937   7.104 -0.2851 -0.3921  0.0757
14120SOL    HW143554   2.646   3.908   7.185 -0.0595  0.4397  0.4894
14120SOL    HW243555   2.756   3.997   7.131  1.5728 -2.1056 -0.5693
14121SOL     OW43556   8.320   0.199   1.128 -0.2142  0.3322 -0.3256
14121SOL    HW143557   8.413   0.192   1.147 -0.2582  1.0337  0.2200
14121SOL    HW243558   8.296   0.286   1.159 -1.7205 -0.9865  2.6735
14122SOL     OW43559   0.661   7.898   0.162  0.1931  0.2914 -0.1009
14122SOL    HW143560   0.734   7.923   0.105 -0.0240 -0.6469 -0.8141
14122SOL    HW243561   0.606   7.976   0.165  1.0261  0.8868  0.1423
14123SOL     OW43562   6.413   1.452   1.415  0.0380 -0.1726 -0.1020
14123SOL    HW143563   6.342   1.388   1.408 -0.7895  0.2391  2.7439
14123SOL    HW243564   6.386   1.508   1.489  2.0063  1.7722 -0.7529
14124SOL     OW43565   1.410   7.458   3.045 -0.0052  0.3557  0.5439
14124SOL    HW143566   1.484   7.407   3.078 -0.1892  0.6812  1.4874
14124SOL    HW243567   1.385   7.413   2.964 -0.1640 -1.0744  1.3414
14125SOL     OW43568   0.651   6.986   7.778  0.4439 -0.6272  0.2239
14125SOL    HW143569   0.591   6.922   7.738  0.2555 -1.6445  2.0434
14125SOL    HW243570   0.595   7.036   7.838  0.5449  1.4493 -1.3264
14126SOL     OW43571   3.101   0.719   6.840 -0.0465 -0.2818  0.3581
14126SOL    HW143572   3.100   0.628   6.868  0.6112 -0.2890  0.3651
14126SOL    HW243573   3.121   0.769   6.920  0.4553 -0.1994  0.1838
14127SOL     OW43574   6.268   3.337   2.079  0.1090  0.3320 -0.0180
14127SOL    HW143575   6.261   3.332   2.175 -1.5845  1.8616  0.0059
14127SOL    HW243576   6.341   3.280   2.057 -1.7626 -3.1201  1.8504
14128SOL     OW43577   5.792   5.074   7.444  0.0311 -0.6917 -0.0995
14128SOL    HW143578   5.820   4.983   7.451  0.3581 -0.4734  2.5927
14128SOL    HW243579   5.830   5.105   7.362  1.5378 -2.4485 -0.1300
14129SOL     OW43580   1.089   5.556   4.531 -0.4702  0.8374  0.2441
14129SOL    HW143581   1.122   5.472   4.561 -1.6299  0.6280  1.0086
14129SOL    HW243582   1.152   5.620   4.565 -0.0874  0.3540  0.4619
14130SOL     OW43583   2.349   0.197   1.918 -0.4348 -0.4068  0.2826
14130SOL    HW143584   2.367   0.172   1.827  0.1525 -0.2041  0.3378
14130SOL    HW243585   2.436   0.203   1.959 -0.7809 -2.8369  1.5056
14131SOL     OW43586   6.190   2.146   0.490  0.5690  0.3256  0.4615
14131SOL    HW143587   6.113   2.175   0.441 -0.9531 -0.4763  2.2554
14131SOL    HW243588   6.237   2.090   0.428 -1.0762 -0.3742 -0.2335
14132SOL     OW43589   2.164   7.943   6.198 -0.3136 -0.1908  0.1157
14132SOL    HW143590   2.243   7.929   6.145  0.1968 -0.4496  0.9370
14132SOL    HW243591   2.171   7.880   6.270 -1.9484 -1.1722 -0.5294
14133SOL     OW43592   6.884   0.499   5.000 -0.0797 -0.2245 -0.5185
14133SOL    HW143593   6.917   0.410   5.007  0.6072  0.1073  0.7881
14133SOL    HW243594   6.921   0.532   4.917 -0.1426 -1.0614 -0.8862
14134SOL     OW43595   0.315   3.176   3.471 -0.0778  0.4472  0.5845
14134SOL    HW143596   0.370   3.237   3.421 -1.1594 -0.4295 -1.8024
14134SOL    HW243597   0.227   3.211   3.463 -0.5640 -0.8327  0.0810
14135SOL     OW43598   2.064   3.997   3.898  0.1992  0.3132  0.0364
14135SOL    HW143599   2.114   3.927   3.941  1.9551  1.4944  0.0577
14135SOL    HW243600   2.100   4.078   3.936  0.8334  1.3600 -2.6077
14136SOL     OW43601   3.230   5.700   3.833 -0.2726 -0.4329  0.1264
14136SOL    HW143602   3.270   5.785   3.814  1.7081 -0.8472  2.0533
14136SOL    HW243603   3.138   5.721   3.853 -0.5021  0.8618 -2.0089
14137SOL     OW43604   1.353   5.771   3.734  0.4103 -0.5552 -0.0729
14137SOL    HW143605   1.272   5.812   3.764  0.9116  0.9647 -0.6966
14137SOL    HW243606   1.415   5.843   3.726  1.4572 -1.5019 -0.8631
14138SOL     OW43607   8.282   3.222   7.288  0.2645 -0.3707  0.2006
14138SOL    HW143608   8.377   3.232   7.286  0.3225 -0.8405 -2.0221
14138SOL    HW243609   8.268   3.144   7.343  1.0684  0.2552  1.3366
14139SOL     OW43610   3.757   8.030   4.311 -0.4270  0.3752 -0.0163
14139SOL    HW143611   3.719   7.943   4.319  0.0456  0.1968  0.3193
14139SOL    HW243612   3.851   8.016   4.313 -0.3288  0.7875 -1.1859
14140SOL     OW43613   6.256   2.600   3.845  0.9328 -0.2348 -0.1451
14140SOL    HW143614   6.251   2.556   3.760  2.0631  1.4919 -1.1652
14140SOL    HW243615   6.301   2.538   3.902  1.5989 -0.7942 -1.2505
14141SOL     OW43616   4.672   3.871   5.859 -0.2093 -0.0354 -0.5792
14141SOL    HW143617   4.698   3.779   5.862  1.3144  0.3657  1.8247
14141SOL    HW243618   4.622   3.884   5.940  0.1683  1.3726 -0.5442
14142SOL     OW43619   2.330   1.769   4.515 -0.0864 -0.1386  0.0119
14142SOL    HW143620   2.295   1.784   4.603  1.2426  1.1442  0.3591
14142SOL    HW243621   2.362   1.679   4.517 -0.4314 -0.2544  0.6988
14143SOL     OW43622   2.743   0.050   7.725  0.0525 -0.0290  0.6951
14143SOL    HW143623   2.696   0.109   7.785  0.8032 -0.7940  2.0857
14143SOL    HW243624   2.834   0.054   7.754  0.6238  0.2652 -0.9948
14144SOL     OW43625   4.604   7.948   2.867  0.6605  0.3270 -0.2676
14144SOL    HW143626   4.660   7.909   2.934 -0.4352 -1.2451 -0.2015
14144SOL    HW243627   4.625   8.041   2.868  2.4999 -0.0596  0.4638
14145SOL     OW43628   7.834   3.963   4.483 -0.3868  0.3827 -0.1794
14145SOL    HW143629   7.794   4.002   4.561 -0.7005  0.7988 -0.5455
14145SOL    HW243630   7.827   4.031   4.416 -0.3147 -0.0548 -0.6332
14146SOL     OW43631   6.475   0.114   4.844  0.3085  0.1104  0.1888
14146SOL    HW143632   6.444   0.194   4.888  1.3265 -0.7142  2.6073
14146SOL    HW243633   6.421   0.044   4.880  1.9239 -0.7466  1.0891
14147SOL     OW43634   8.100   8.504   1.837  0.2191  0.1834 -0.6235
14147SOL    HW143635   8.139   8.547   1.761 -1.6922  2.5120 -0.4203
14147SOL    HW243636   8.028   8.562   1.863  0.3773 -0.8566  2.5798
14148SOL     OW43637   2.948   7.881   2.428  0.3230  0.0716  0.0281
14148SOL    HW143638   3.026   7.934   2.445 -0.0430  1.0047 -1.0516
14148SOL    HW243639   2.965   7.840   2.344  0.1735 -0.7582  0.3906
14149SOL     OW43640   5.455   4.193   1.100  0.3016 -0.2300 -0.2620
14149SOL    HW143641   5.538   4.151   1.077 -0.4398 -1.7954 -0.2599
14149SOL    HW243642   5.452   4.272   1.047  0.4929 -1.6270 -2.5070
14150SOL     OW43643   4.131   8.409   8.599 -0.7578 -0.3360 -0.0334
14150SOL    HW143644   4.226   8.425   8.593 -1.0950  2.3303  0.4193
14150SOL    HW243645   4.107   8.437   8.687 -1.9711 -1.0359 -0.1244
14151SOL     OW43646   2.440   2.271   1.627  1.0398 -0.1714 -0.0773
14151SOL    HW143647   2.501   2.336   1.662 -1.1714  3.0122 -1.6239
14151SOL    HW243648   2.365   2.274   1.687  0.5715 -0.7141 -0.6287
14152SOL     OW43649   8.589   7.443   2.942 -0.4477 -0.5289 -0.1206
14152SOL    HW143650   8.493   7.446   2.934 -0.4257 -0.2289 -0.2871
14152SOL    HW243651   8.604   7.400   3.026 -0.7394 -0.0962  0.1608
14153SOL     OW43652   0.800   7.485   0.056  0.3086 -0.2126  0.4090
14153SOL    HW143653   0.710   7.515   0.041 -0.6476 -2.8248  0.4328
14153SOL    HW243654   0.837   7.549   0.117 -1.7624  0.5538  0.9289
14154SOL     OW43655   6.607   3.982   0.064  0.4311 -1.1490  0.3839
14154SOL    HW143656   6.697   3.949   0.064 -0.0336 -2.7458  3.4597
14154SOL    HW243657   6.612   4.067   0.107  0.5325 -0.9075 -0.0950
14155SOL     OW43658   4.893   7.334   3.217 -0.2245  0.0264 -0.1173
14155SOL    HW143659   4.943   7.399   3.266 -0.1741 -0.8890  1.1180
14155SOL    HW243660   4.959   7.281   3.172 -0.1029 -0.6542  0.8309
14156SOL     OW43661   6.245   3.994   4.917 -0.1832 -0.5419  0.3093
14156SOL    HW143662   6.234   3.943   4.997 -0.6060 -0.9368  0.0036
14156SOL    HW243663   6.173   3.966   4.861 -0.2239  0.1507  0.0102
14157SOL     OW43664   7.727   7.592   0.484  0.0468  0.3727 -0.2618
14157SOL    HW143665   7.768   7.643   0.413  0.9542  0.3359  0.2241
14157SOL    HW243666   7.678   7.657   0.534 -0.7575  0.3697 -1.0254
14158SOL     OW43667   4.224   8.278   7.055  0.1875  0.4161 -0.8592
14158SOL    HW143668   4.207   8.214   6.986  1.1657  0.0108 -0.7379
14158SOL    HW243669   4.299   8.329   7.024  0.8211  0.0470  0.0112
14159SOL     OW43670   6.053   3.575   8.472  0.0985  0.0196 -0.7205
14159SOL    HW143671   5.985   3.519   8.434 -0.7244  0.3567  0.2195
14159SOL    HW243672   6.016   3.604   8.556  1.1991  0.6179 -0.4277
14160SOL     OW43673   3.507   4.431   2.491  0.0135 -0.3739 -0.0653
14160SOL    HW143674   3.418   4.467   2.488 -0.4034 -1.3922 -0.3356
14160SOL    HW243675   3.549   4.465   2.412 -0.6960 -1.2687 -0.8441
14161SOL     OW43676   6.796   3.681   1.535 -0.2062 -0.0334 -0.5452
14161SOL    HW143677   6.840   3.616   1.590  0.9382 -1.2195 -2.7251
14161SOL    HW243678   6.741   3.629   1.476  0.2689  1.0065 -1.9571
14162SOL     OW43679   6.646   7.562   4.652 -0.0222  0.0674 -0.8198
14162SOL    HW143680   6.591   7.484   4.648 -1.3833  0.8893  0.5046
14162SOL    HW243681   6.672   7.569   4.744  0.1140  1.1225 -0.9167
14163SOL     OW43682   3.004   5.513   5.419 -0.5675  0.0179 -0.1377
14163SOL    HW143683   3.095   5.486   5.428 -1.1786 -2.6255 -0.9147
14163SOL    HW243684   2.980   5.548   5.505  1.5224  2.1969 -0.3391
14164SOL     OW43685   6.887   4.373   1.698 -0.1912  0.1143  0.7550
14164SOL    HW143686   6.862   4.456   1.737 -0.1493  0.6578 -0.3472
14164SOL    HW243687   6.934   4.397   1.618 -0.2054 -0.9697  0.4059
14165SOL     OW43688   5.695   4.945   1.059  0.7311 -0.4466  0.0279
14165SOL    HW143689   5.723   4.985   1.141  1.9500 -0.3296 -0.4282
14165SOL    HW243690   5.683   4.852   1.081 -1.0126 -0.0734  0.8169
14166SOL     OW43691   3.412   4.383   0.094 -0.1119  0.2320 -0.2186
14166SOL    HW143692   3.340   4.386   0.156  0.1096 -0.1054  0.0620
14166SOL    HW243693   3.487   4.417   0.143 -0.2700  1.4307 -0.7838
14167SOL     OW43694   3.445   5.003   2.343 -0.0350 -0.1072 -0.2887
14167SOL    HW143695   3.439   5.032   2.434  0.4211  2.9455 -1.1330
14167SOL    HW243696   3.520   4.943   2.342 -0.1739 -0.3549  1.3442
14168SOL     OW43697   3.752   4.275   3.970 -0.2107  0.5306 -0.7966
14168SOL    HW143698   3.808   4.268   4.047 -1.1573 -1.4075 -0.2121
14168SOL    HW243699   3.753   4.187   3.932 -0.8958  1.0898 -2.1958
14169SOL     OW43700   2.235   2.450   6.846  0.6643  0.3207  0.0491
14169SOL    HW143701   2.229   2.395   6.924 -0.6170  0.4393  0.0580
14169SOL    HW243702   2.310   2.507   6.862 -2.0431  3.4670  3.3053
14170SOL     OW43703   3.813   1.697   6.503  0.0585  0.5830  0.4899
14170SOL    HW143704   3.901   1.663   6.484 -0.4976 -0.0757 -1.1279
14170SOL    HW243705   3.813   1.713   6.597  1.5337 -0.5226  0.7137
14171SOL     OW43706   0.434   8.051   1.798 -0.2775 -0.3982  0.4638
14171SOL    HW143707   0.503   8.114   1.776  0.4431 -0.4401  2.4273
14171SOL    HW243708   0.355   8.105   1.808  0.2061  0.1347  1.5255
14172SOL     OW43709   8.494   2.587   4.657 -0.3519 -0.4202  0.0413
14172SOL    HW143710   8.485   2.683   4.653 -0.0512 -0.3706  0.4395
14172SOL    HW243711   8.567   2.573   4.718 -0.4511 -0.9048  0.0505
14173SOL     OW43712   7.456   0.121   6.543  0.8816 -0.2522  0.7974
14173SOL    HW143713   7.480   0.162   6.459 -0.1451 -0.1624  0.5366
14173SOL    HW243714   7.457   0.193   6.606 -0.1454  0.0532  0.4920
14174SOL     OW43715   8.094   6.766   8.177  0.1215  0.2348  0.2146
14174SOL    HW143716   8.142   6.813   8.245  0.0650  0.2809  0.2225
14174SOL    HW243717   8.023   6.722   8.223  1.3938 -1.5913  0.5458
14175SOL     OW43718   7.765   4.453   7.420  0.5720  0.2046 -0.6566
14175SOL    HW143719   7.716   4.372   7.408  0.7833  0.0182 -0.2619
14175SOL    HW243720   7.844   4.427   7.467 -0.3498  0.9326  1.4509
14176SOL     OW43721   3.757   5.742   1.997  0.3890 -0.2423  0.1187
14176SOL    HW143722   3.836   5.788   2.023  1.2561 -1.7325  0.2050
14176SOL    HW243723   3.726   5.789   1.919  1.1580  0.5596  0.2883
14177SOL     OW43724   6.727   7.388   3.910 -0.0668 -0.0774  0.4491
14177SOL    HW143725   6.686   7.312   3.951  1.1615 -1.1359 -0.2124
14177SOL    HW243726   6.759   7.440   3.983 -1.2757  0.0448  0.9243
14178SOL     OW43727   8.585   2.579   3.625  0.2559 -0.4969  0.1956
14178SOL    HW143728   8.512   2.628   3.587  1.9879  2.0381 -0.1031
14178SOL    HW243729   8.616   2.634   3.696  0.1099 -2.9171  2.2645
14179SOL     OW43730   3.541   3.210   1.188  0.1053 -0.3898 -0.1624
14179SOL    HW143731   3.557   3.273   1.259  1.0767 -1.3745  0.5186
14179SOL    HW243732   3.627   3.174   1.168 -0.6308 -2.9750  0.8833
14180SOL     OW43733   2.690   0.448   1.285  0.0126 -0.4159  0.1047
14180SOL    HW143734   2.652   0.533   1.262 -0.3704  0.1978  2.7261
14180SOL    HW243735   2.716   0.457   1.377  0.2892 -3.0350  0.3604
14181SOL     OW43736   4.667   2.229   5.560 -0.4185 -0.5393  0.2260
14181SOL    HW143737   4.668   2.322   5.537  0.4435 -0.3430  0.9892
14181SOL    HW243738   4.732   2.190   5.502 -0.4819 -0.5924  0.1908
14182SOL     OW43739   5.610   8.461   2.320 -0.2549  0.1440 -0.2093
14182SOL    HW143740   5.614   8.552   2.349 -2.4421  0.2503 -0.0808
14182SOL    HW243741   5.692   8.447   2.273  0.3352  2.0243  0.1734
14183SOL     OW43742   4.002   2.797   1.525  0.5698 -0.0911  0.5723
14183SOL    HW143743   3.974   2.706   1.522 -0.9050  0.3570 -1.9741
14183SOL    HW243744   4.035   2.816   1.438 -0.2908  2.1166  0.6351
14184SOL     OW43745   2.623   5.959   5.796 -0.3697  0.2500  0.3737
14184SOL    HW143746   2.579   5.923   5.719  1.5542 -2.3662  0.3648
14184SOL    HW243747   2.684   6.023   5.761  0.0517 -0.4782 -0.2608
14185SOL     OW43748   7.949   3.651   4.890 -0.5413 -0.2096  0.3980
14185SOL    HW143749   7.885   3.689   4.830 -1.4167  0.1971  1.5612
14185SOL    HW243750   7.926   3.686   4.976 -0.8139 -2.6011  1.3848
14186SOL     OW43751   0.484   0.631   7.062  0.4947 -0.3420 -0.3350
14186SOL    HW143752   0.576   0.622   7.039  0.4655 -0.2334 -0.4952
14186SOL    HW243753   0.440   0.562   7.013  0.4675 -0.2767 -0.4041
14187SOL     OW43754   4.546   1.667   0.435 -0.2507  0.2328  0.5731
14187SOL    HW143755   4.473   1.612   0.462  1.3622 -2.4524 -0.1249
14187SOL    HW243756   4.520   1.756   0.460 -3.0157 -0.7960  1.7654
14188SOL     OW43757   1.911   0.839   4.357 -0.4729 -0.6284 -0.2561
14188SOL    HW143758   1.980   0.799   4.304  0.3350 -0.1831  0.4340
14188SOL    HW243759   1.958   0.897   4.417 -1.4063 -0.7231  0.5876
14189SOL     OW43760   7.702   3.486   1.109  0.0416  0.0355  0.5395
14189SOL    HW143761   7.759   3.413   1.134  0.0707 -0.6775 -1.3951
14189SOL    HW243762   7.748   3.527   1.036 -1.6528 -0.2441 -0.7276
14190SOL     OW43763   3.462   7.844   5.295 -0.0889  0.3372  0.4707
14190SOL    HW143764   3.524   7.772   5.283  0.2290  0.3273  2.0385
14190SOL    HW243765   3.517   7.923   5.291 -0.0308  0.3505  1.3905
14191SOL     OW43766   7.307   2.133   7.207  0.0166 -0.5728 -0.0734
14191SOL    HW143767   7.284   2.041   7.206  2.0700 -1.1442 -1.2818
14191SOL    HW243768   7.276   2.167   7.123 -0.2094 -0.2994  0.1178
14192SOL     OW43769   7.416   5.813   5.597  0.1204 -0.1665 -0.3246
14192SOL    HW143770   7.472   5.865   5.539  0.4372  1.2495  1.1809
14192SOL    HW243771   7.458   5.820   5.683 -0.6292 -1.7657  0.2001
14193SOL     OW43772   7.126   2.220   0.051  0.1369 -0.5744 -0.3311
14193SOL    HW143773   7.033   2.230   0.071 -0.0547 -0.5568 -1.2176
14193SOL    HW243774   7.128   2.171  -0.031  0.9324 -1.4442  0.1943
14194SOL     OW43775   1.311   5.204   8.076 -0.3155 -0.0583 -1.0115
14194SOL    HW143776   1.371   5.238   8.142  0.0973 -0.8463 -0.9699
14194SOL    HW243777   1.247   5.274   8.063 -1.1331 -0.3253  1.1120
14195SOL     OW43778   0.929   8.152   7.498 -0.1645  0.9836  0.1684
14195SOL    HW143779   0.940   8.213   7.425 -0.8665 -1.8300 -2.5388
14195SOL    HW243780   0.837   8.157   7.520 -0.1330  1.2149  0.2481
14196SOL     OW43781   5.852   4.421   2.974  0.3101  0.6405  0.0101
14196SOL    HW143782   5.894   4.499   2.938 -0.4051  0.4869 -1.2002
14196SOL    HW243783   5.922   4.357   2.980  0.8076  1.2190  0.5779
14197SOL     OW43784   1.829   0.672   8.524 -0.2451  0.4642  0.0621
14197SOL    HW143785   1.921   0.661   8.546 -0.4593  0.7970  1.2293
14197SOL    HW243786   1.782   0.633   8.599 -1.0346  1.6871  0.2323
14198SOL     OW43787   5.236   3.210   3.213  0.0178  0.5961  0.4595
14198SOL    HW143788   5.160   3.203   3.156 -0.4666  0.3062  1.1339
14198SOL    HW243789   5.257   3.120   3.237 -1.2510  0.8158  2.6339
14199SOL     OW43790   2.455   6.433   3.308 -0.8211 -0.0368 -0.5749
14199SOL    HW143791   2.442   6.524   3.279 -1.1472 -0.1595 -0.8250
14199SOL    HW243792   2.416   6.430   3.395 -0.6635  0.1013 -0.4973
14200SOL     OW43793   4.354   5.855   3.681  0.6269 -0.0943 -0.2412
14200SOL    HW143794   4.300   5.915   3.733 -0.1436 -0.5393 -0.4974
14200SOL    HW243795   4.421   5.910   3.641  1.7539  0.1295  1.8695
14201SOL     OW43796   3.886   6.108   6.744  0.0475  0.1847  0.7199
14201SOL    HW143797   3.904   6.067   6.829  1.7186 -1.1881 -0.2202
14201SOL    HW243798   3.798   6.078   6.721 -0.7274  1.1460  2.2306
14202SOL     OW43799   5.253   3.026   7.780 -0.2406 -0.2764  0.0251
14202SOL    HW143800   5.277   3.029   7.873  0.2703 -2.0313 -0.0160
14202SOL    HW243801   5.326   3.067   7.735 -0.1532 -0.0645  0.3551
14203SOL     OW43802   0.726   0.164   3.288 -0.3261 -0.4427  0.6803
14203SOL    HW143803   0.664   0.172   3.361 -0.3827  0.6825  0.5186
14203SOL    HW243804   0.809   0.195   3.324 -0.5471  0.9699  0.0357
14204SOL     OW43805   3.415   0.367   2.817 -0.1972  0.2309 -0.3292
14204SOL    HW143806   3.385   0.409   2.737 -0.1205 -0.5557 -0.7826
14204SOL    HW243807   3.473   0.296   2.787  0.9104  0.7631  0.4694
14205SOL     OW43808   7.860   5.353   2.986 -0.3398 -0.2167  0.0994
14205SOL    HW143809   7.914   5.410   3.041 -3.3461  2.0632  0.9566
14205SOL    HW243810   7.808   5.303   3.048 -0.4609 -1.0991 -0.7001
14206SOL     OW43811   3.139   2.436   7.388 -1.3907  0.4713 -0.0069
14206SOL    HW143812   3.102   2.522   7.370  0.1759  0.8431 -1.8014
14206SOL    HW243813   3.086   2.376   7.335 -0.5446  0.7839 -1.2539
14207SOL     OW43814   3.564   0.101   6.693  0.1690 -0.3630  0.0660
14207SOL    HW143815   3.647   0.150   6.686 -0.8253  1.3502 -0.3576
14207SOL    HW243816   3.553   0.087   6.787  0.9212 -0.5645  0.1299
14208SOL     OW43817   7.342   1.319   1.103  1.0569  0.0641 -0.0429
14208SOL    HW143818   7.262   1.370   1.098 -0.0221 -1.5522  0.0127
14208SOL    HW243819   7.362   1.313   1.197  0.1546 -1.0988  0.0984
14209SOL     OW43820   8.405   7.904   3.993 -0.3384  0.4135 -0.1355
14209SOL    HW143821   8.355   7.949   4.061  2.7269  3.2345  0.4776
14209SOL    HW243822   8.460   7.841   4.041  1.1907  1.7941  0.0101
14210SOL     OW43823   0.477   3.288   2.600 -0.5093 -0.2622  0.5838
14210SOL    HW143824   0.393   3.332   2.616 -0.5573 -0.4221  0.7728
14210SOL    HW243825   0.500   3.249   2.684 -0.3226 -0.3534  0.4910
14211SOL     OW43826   3.126   2.024   8.041 -0.2465 -0.0535  0.2928
14211SOL    HW143827   3.181   2.021   8.119 -0.1795  1.0543  0.3055
14211SOL    HW243828   3.167   2.091   7.986 -1.6064  0.8717  0.3421
14212SOL     OW43829   0.435   5.042   4.980  0.5624  0.1534  0.2755
14212SOL    HW143830   0.482   5.113   5.023 -0.2449  2.1856 -1.9339
14212SOL    HW243831   0.381   5.086   4.914 -0.7607 -2.4627 -0.5212
14213SOL     OW43832   7.474   6.260   2.648 -0.1351 -0.3140  0.0756
14213SOL    HW143833   7.491   6.200   2.721  1.1169  0.2947  0.3030
14213SOL    HW243834   7.414   6.325   2.685 -1.6813 -1.4940 -0.2324
14214SOL     OW43835   4.406   4.389   0.615 -0.5377  0.3428 -0.4921
14214SOL    HW143836   4.391   4.469   0.564  1.6630  0.6241 -0.8045
14214SOL    HW243837   4.450   4.419   0.695 -0.2952 -0.4751 -0.3047
14215SOL     OW43838   1.968   4.353   0.797  0.1764 -0.5552  0.7498
14215SOL    HW143839   1.874   4.338   0.793  0.2662 -0.9048 -1.3081
14215SOL    HW243840   2.003   4.276   0.841 -0.4247 -0.8113  0.7840
14216SOL     OW43841   4.307   6.483   8.026  0.0805 -0.2569  0.2504
14216SOL    HW143842   4.319   6.546   8.098  1.6622 -2.0955  1.6966
14216SOL    HW243843   4.362   6.517   7.955  0.7708  0.1006  0.9416
14217SOL     OW43844   2.275   3.231   2.254 -0.2250 -0.4210 -0.0536
14217SOL    HW143845   2.323   3.150   2.237 -0.7704 -0.9633  0.8989
14217SOL    HW243846   2.208   3.207   2.318 -0.9343  0.6045 -0.3730
14218SOL     OW43847   7.820   5.379   2.361  0.0428 -0.3591 -0.1365
14218SOL    HW143848   7.883   5.334   2.305 -0.5414  0.0978 -1.1933
14218SOL    HW243849   7.770   5.309   2.402  0.7797 -0.7085  0.1586
14219SOL     OW43850   5.674   5.586   3.817 -0.0699  0.2925 -0.0300
14219SOL    HW143851   5.643   5.633   3.895  1.2790  1.4234 -0.1458
14219SOL    HW243852   5.601   5.592   3.755 -1.4132 -1.1626  1.3139
14220SOL     OW43853   7.384   4.573   6.883 -0.2007  0.3176 -0.2890
14220SOL    HW143854   7.305   4.626   6.887  0.2510  0.9847  0.0155
14220SOL    HW243855   7.367   4.509   6.815 -0.1346  1.9123 -1.8964
14221SOL     OW43856   5.155   5.151   5.856  0.5460 -0.1797  0.5488
14221SOL    HW143857   5.234   5.122   5.810 -0.6345  0.0103 -1.7673
14221SOL    HW243858   5.175   5.240   5.885  1.2045 -0.1427  0.0121
14222SOL     OW43859   6.031   0.081   3.875  0.1610  0.0499 -0.0346
14222SOL    HW143860   6.014   0.139   3.949 -1.6227 -0.4193 -0.0356
14222SOL    HW243861   6.014   0.135   3.798 -1.0148 -0.2982 -0.0404
14223SOL     OW43862   1.501   4.339   3.129 -0.6454 -0.0379  0.1186
14223SOL    HW143863   1.416   4.301   3.153 -1.1420  0.9503 -0.0477
14223SOL    HW243864   1.562   4.266   3.136 -1.4590 -0.6971  0.5269
14224SOL     OW43865   7.037   8.495   5.547  0.0677  0.0163  0.4100
14224SOL    HW143866   7.069   8.411   5.581 -1.2705 -1.6174 -2.0315
14224SOL    HW243867   6.944   8.496   5.568  0.2195  1.3301  1.1354
14225SOL     OW43868   1.906   7.401   4.803 -0.1175 -0.0488  0.4498
14225SOL    HW143869   1.862   7.472   4.757  0.9996  0.9623  0.8741
14225SOL    HW243870   1.977   7.375   4.744 -0.3716 -0.6605  0.4049
14226SOL     OW43871   6.427   6.357   6.512  0.1077 -0.3449 -0.5614
14226SOL    HW143872   6.490   6.414   6.468  0.9518 -0.9905 -0.2154
14226SOL    HW243873   6.350   6.358   6.455  0.4355  0.4342 -1.0057
14227SOL     OW43874   3.652   7.242   6.927 -0.1673  0.4636  0.2700
14227SOL    HW143875   3.631   7.202   7.012  1.7367  0.3386  0.7377
14227SOL    HW243876   3.583   7.212   6.869  0.3214 -2.3295  0.9573
14228SOL     OW43877   0.756   1.497   4.412  0.0007 -0.0315  0.3482
14228SOL    HW143878   0.730   1.478   4.502 -1.1690  2.6788  0.6767
14228SOL    HW243879   0.851   1.503   4.415  0.0161 -0.6139  1.2606
14229SOL     OW43880   4.381   0.375   5.912 -0.2848  0.2562 -0.0354
14229SOL    HW143881   4.319   0.421   5.856 -0.4079  1.9549  1.4089
14229SOL    HW243882   4.329   0.343   5.985  0.0955 -0.7584 -0.1934
14230SOL     OW43883   2.605   1.404   8.099 -0.0510  0.0879 -0.0175
14230SOL    HW143884   2.521   1.384   8.140  0.1114  0.1459  0.3459
14230SOL    HW243885   2.634   1.484   8.142  0.2897 -0.0509  0.0097
14231SOL     OW43886   2.719   4.040   0.696  0.1132  0.7576  0.1928
14231SOL    HW143887   2.811   4.045   0.724  1.3402  1.0405 -3.3373
14231SOL    HW243888   2.698   3.947   0.699  0.3393  0.7303  1.4495
14232SOL     OW43889   0.137   2.999   7.478  0.4198 -0.1070  0.4203
14232SOL    HW143890   0.088   3.078   7.499  1.1158  0.1930  0.9723
14232SOL    HW243891   0.136   2.994   7.383 -0.8281 -0.2108  0.4289
14233SOL     OW43892   7.406   7.632   7.120  0.3556  0.4591 -0.5915
14233SOL    HW143893   7.364   7.714   7.146  2.4481  1.6305 -0.6188
14233SOL    HW243894   7.498   7.656   7.107  1.2962 -2.1383  0.5508
14234SOL     OW43895   1.708   8.228   3.394  0.1121  0.4910  0.1512
14234SOL    HW143896   1.743   8.141   3.375 -2.0581 -0.8962  2.0074
14234SOL    HW243897   1.750   8.254   3.476  0.0383  0.7744  0.1022
14235SOL     OW43898   1.932   6.134   2.125 -0.2998  0.2134  0.0087
14235SOL    HW143899   1.980   6.078   2.185 -0.8582 -0.8195 -0.4717
14235SOL    HW243900   1.973   6.120   2.040 -2.3889 -1.9828 -0.7538
14236SOL     OW43901   4.724   8.084   8.099  0.2691  0.1333  0.6343
14236SOL    HW143902   4.754   8.122   8.181 -0.9364 -0.0052  1.1641
14236SOL    HW243903   4.695   7.996   8.122  1.7970 -0.6538 -0.3290
14237SOL     OW43904   5.134   0.857   4.787  0.2464 -0.6642 -0.2165
14237SOL    HW143905   5.136   0.892   4.698 -0.8448  0.4935  0.1849
14237SOL    HW243906   5.221   0.817   4.800  0.2938 -1.1548 -1.8984
14238SOL     OW43907   3.734   6.203   0.115 -0.3206 -0.2810 -0.1298
14238SOL    HW143908   3.763   6.179   0.027  0.3229 -0.4105  0.1100
14238SOL    HW243909   3.781   6.142   0.173 -1.5856 -0.9591  0.2412
14239SOL     OW43910   0.961   0.639   0.299 -0.2824  0.0918 -0.8608
14239SOL    HW143911   0.916   0.602   0.223  1.6036 -1.4903 -1.2799
14239SOL    HW243912   0.910   0.608   0.374 -1.3320  0.4637 -1.3984
14240SOL     OW43913   6.130   2.654   7.520  0.6419 -0.2254 -0.0094
14240SOL    HW143914   6.219   2.688   7.513 -0.2159  1.9617 -1.5941
14240SOL    HW243915   6.127   2.581   7.458  1.1170  0.2539 -0.6135
14241SOL     OW43916   5.092   4.927   2.590 -0.6891  0.0108 -0.4846
14241SOL    HW143917   5.064   5.017   2.610  2.2279  1.3176 -1.6982
14241SOL    HW243918   5.031   4.898   2.522 -1.0051  1.5514 -0.9091
14242SOL     OW43919   6.796   7.969   4.508 -0.1863  0.0067 -0.5095
14242SOL    HW143920   6.806   7.987   4.414  1.0547 -0.0590 -0.4130
14242SOL    HW243921   6.777   8.054   4.547  0.3143  0.2159 -0.7089
14243SOL     OW43922   6.258   4.111   6.621 -0.0804 -0.1000 -0.0256
14243SOL    HW143923   6.306   4.155   6.691  1.0612 -0.5766 -0.4888
14243SOL    HW243924   6.249   4.177   6.553 -1.4081  0.4427  0.6235
14244SOL     OW43925   6.648   2.731   8.405  0.2052 -0.4274  0.3742
14244SOL    HW143926   6.691   2.795   8.461  0.5021  0.6304 -1.0047
14244SOL    HW243927   6.555   2.738   8.428  0.2092  0.6488  0.1389
14245SOL     OW43928   4.254   7.733   2.525  0.1464  0.0530  0.2134
14245SOL    HW143929   4.243   7.790   2.601  0.4745 -0.1697  0.4313
14245SOL    HW243930   4.183   7.758   2.465  1.3832  1.9765 -0.5028
14246SOL     OW43931   0.223   3.786   4.802 -0.1461  0.0772  0.1701
14246SOL    HW143932   0.158   3.788   4.732  2.3697  0.8235 -2.3296
14246SOL    HW243933   0.217   3.873   4.843 -0.0665  0.5035 -0.7084
14247SOL     OW43934   7.748   7.611   8.432  0.2764 -0.3661 -0.2839
14247SOL    HW143935   7.835   7.640   8.459 -0.0070  0.1761  0.0721
14247SOL    HW243936   7.694   7.690   8.439 -1.0554 -1.4164  2.9927
14248SOL     OW43937   6.171   2.518   6.952 -0.2275  0.1480  0.4754
14248SOL    HW143938   6.084   2.485   6.975  0.0761 -0.9899  0.0413
14248SOL    HW243939   6.198   2.569   7.029 -1.0876  0.1383  0.7918
14249SOL     OW43940   2.147   3.512   0.272 -0.2736  0.6335 -0.6211
14249SOL    HW143941   2.170   3.437   0.218  0.0347  1.4720 -1.6924
14249SOL    HW243942   2.221   3.572   0.262 -0.2585  0.8526  0.6551
14250SOL     OW43943   2.692   4.938   3.865  0.3389  0.4503 -0.5461
14250SOL    HW143944   2.693   5.023   3.910  0.3301 -0.1115  0.5433
14250SOL    HW243945   2.752   4.950   3.792  0.0322  1.5225 -0.6495
14251SOL     OW43946   5.753   5.089   1.703  0.3436 -0.0656  0.4263
14251SOL    HW143947   5.809   5.022   1.743 -2.3937 -0.8810  3.3173
14251SOL    HW243948   5.770   5.168   1.756  0.5390  0.3686 -0.2772
14252SOL     OW43949   6.085   7.898   2.162 -0.5286 -0.6453 -0.4070
14252SOL    HW143950   6.161   7.888   2.219 -0.2591 -0.2923 -0.7022
14252SOL    HW243951   6.013   7.859   2.211 -0.9576  2.2360  1.4900
14253SOL     OW43952   7.496   2.379   3.421 -0.3956  0.8329  0.3107
14253SOL    HW143953   7.447   2.387   3.503 -0.4352  0.2270  0.3493
14253SOL    HW243954   7.518   2.286   3.415  2.0236  1.3093  1.0235
14254SOL     OW43955   4.325   1.566   1.435 -0.1511  0.1014 -0.7235
14254SOL    HW143956   4.404   1.569   1.489 -0.6030  1.9785 -0.0816
14254SOL    HW243957   4.356   1.573   1.345  0.4103  1.2621 -0.4517
14255SOL     OW43958   7.885   4.126   3.173  0.7665  0.1959 -0.1319
14255SOL    HW143959   7.973   4.140   3.138  1.1644  2.4293  1.5610
14255SOL    HW243960   7.899   4.070   3.250  0.7339  0.6571  0.2116
14256SOL     OW43961   6.169   0.162   5.081  0.2583 -0.5485 -0.1064
14256SOL    HW143962   6.127   0.188   4.999 -0.0089 -1.5212 -0.2995
14256SOL    HW243963   6.195   0.070   5.066 -0.2110 -0.8871  1.0559
14257SOL     OW43964   0.474   1.865   4.558  0.5985 -0.2899 -0.1298
14257SOL    HW143965   0.521   1.813   4.623  1.0428  0.2865  0.0199
14257SOL    HW243966   0.507   1.833   4.474  0.5157 -0.5749 -0.0566
14258SOL     OW43967   2.792   1.213   8.559  0.3688 -0.1150 -0.0549
14258SOL    HW143968   2.718   1.251   8.608  0.0750  0.7556 -1.1371
14258SOL    HW243969   2.776   1.119   8.562  0.4146 -0.1031  1.5979
14259SOL     OW43970   4.957   0.351   4.577  0.6719  0.5354  0.1605
14259SOL    HW143971   4.881   0.357   4.519  0.8097 -1.2080 -0.2324
14259SOL    HW243972   4.923   0.379   4.662 -0.1957  0.6046 -0.1927
14260SOL     OW43973   7.955   5.102   2.304  0.1759 -0.2309 -0.7193
14260SOL    HW143974   7.957   5.010   2.281  1.9247 -0.5129  0.3542
14260SOL    HW243975   8.019   5.143   2.246 -0.5253  0.3023 -1.1299
14261SOL     OW43976   2.396   7.380   3.441  0.5221 -0.0303 -0.1108
14261SOL    HW143977   2.470   7.337   3.398  0.9467  0.3505  0.2420
14261SOL    HW243978   2.325   7.316   3.434  0.9255 -0.4647 -0.3083
14262SOL     OW43979   6.877   3.005   7.618  0.4356 -0.0401  0.2019
14262SOL    HW143980   6.904   2.937   7.680  0.8015  0.3795  0.5038
14262SOL    HW243981   6.878   2.961   7.533  1.3752 -0.2234  0.2972
14263SOL     OW43982   1.839   5.484   1.355 -0.5154 -0.0344 -0.5260
14263SOL    HW143983   1.859   5.437   1.274  0.1334  0.5151 -0.6893
14263SOL    HW243984   1.759   5.442   1.388 -0.1777 -0.9743 -0.8804
14264SOL     OW43985   1.332   3.361   1.422  0.9307 -0.3268  0.1019
14264SOL    HW143986   1.323   3.454   1.402  0.2872 -0.5959 -0.8769
14264SOL    HW243987   1.258   3.341   1.479  0.1319 -0.6000 -1.0131
14265SOL     OW43988   7.894   7.573   1.368  0.1814 -0.2330 -0.8566
14265SOL    HW143989   7.823   7.636   1.379 -0.3004 -1.0985  1.6011
14265SOL    HW243990   7.907   7.536   1.455 -0.2332 -4.2430 -2.2787
14266SOL     OW43991   8.198   6.298   3.020  0.4357 -0.7937  0.6082
14266SOL    HW143992   8.179   6.362   2.951  1.0984  0.6749  1.7320
14266SOL    HW243993   8.115   6.287   3.066  0.3154 -0.7510  0.4048
14267SOL     OW43994   1.526   7.650   6.712 -0.1075 -0.4219  0.9160
14267SOL    HW143995   1.472   7.573   6.730 -1.0561  0.4662  1.9841
14267SOL    HW243996   1.569   7.669   6.795  2.2615 -1.3527 -0.0074
14268SOL     OW43997   5.280   6.563   5.459  0.1204  0.1662 -0.5053
14268SOL    HW143998   5.343   6.499   5.425 -0.1188  0.9224 -2.5407
14268SOL    HW243999   5.213   6.510   5.502  1.8670 -0.6730  1.3425
14269SOL     OW44000   5.668   4.530   6.489  0.3205 -0.1434  0.0319
14269SOL    HW144001   5.633   4.587   6.558 -1.3492 -0.6818 -0.3267
14269SOL    HW244002   5.661   4.582   6.409  2.5584  0.6029  0.2543
14270SOL     OW44003   4.789   4.329   4.514  0.4229 -0.2645 -0.4278
14270SOL    HW144004   4.773   4.269   4.587 -0.3139  1.4564  0.8892
14270SOL    HW244005   4.715   4.389   4.515  0.4253 -0.1609 -2.5996
14271SOL     OW44006   6.866   3.657   2.933 -0.6508 -0.0195 -0.7523
14271SOL    HW144007   6.947   3.706   2.923 -0.4665 -0.2860 -0.5901
14271SOL    HW244008   6.824   3.695   3.011  0.4209 -1.3759  0.5452
14272SOL     OW44009   5.862   6.140   0.783 -0.3947 -0.0979  0.1576
14272SOL    HW144010   5.946   6.101   0.810  0.8977  1.8533 -0.7656
14272SOL    HW244011   5.831   6.083   0.713 -0.0277 -1.0242  0.7152
14273SOL     OW44012   4.166   4.989   8.476  0.0996  0.5083  0.0583
14273SOL    HW144013   4.105   4.931   8.521 -2.4320 -0.2542 -3.7605
14273SOL    HW244014   4.125   5.076   8.482  0.5821  0.7064  0.5308
14274SOL     OW44015   4.655   5.527   7.986 -0.0574 -0.2319  0.6018
14274SOL    HW144016   4.645   5.486   7.900  0.8451 -0.5733  0.6541
14274SOL    HW244017   4.583   5.491   8.038 -1.8389  1.4583 -0.5295
14275SOL     OW44018   4.140   4.651   3.830  0.2568  0.0945  0.1045
14275SOL    HW144019   4.169   4.598   3.905 -0.1422 -1.7767 -0.9940
14275SOL    HW244020   4.205   4.633   3.762 -0.5932 -0.0022 -0.6962
14276SOL     OW44021   2.701   8.599   3.539  0.1226 -0.2554  0.5209
14276SOL    HW144022   2.796   8.593   3.549  0.1009 -2.8786 -0.2431
14276SOL    HW244023   2.677   8.523   3.486 -2.3289  0.7867 -0.0085
14277SOL     OW44024   2.205   5.700   3.747  0.1086 -0.3207  0.1464
14277SOL    HW144025   2.261   5.679   3.822 -1.7676  2.2983  2.5189
14277SOL    HW244026   2.134   5.635   3.752 -0.2012  0.0632  0.9083
14278SOL     OW44027   0.031   5.329   0.854  0.5672 -0.0086 -0.3351
14278SOL    HW144028   0.118   5.318   0.893  1.3618 -0.8822 -2.2271
14278SOL    HW244029   0.047   5.376   0.772 -1.0456  1.8161  0.3362
14279SOL     OW44030   2.293   8.119   8.159 -0.1451  0.5294 -0.0196
14279SOL    HW144031   2.207   8.111   8.200  0.3379  1.0111  1.1601
14279SOL    HW244032   2.310   8.213   8.159 -0.4312  0.6315 -2.0680
14280SOL     OW44033   3.156   3.487   1.698  0.5303 -0.0844  0.9636
14280SOL    HW144034   3.209   3.419   1.738  0.6255 -0.8167 -0.3670
14280SOL    HW244035   3.091   3.440   1.646  0.5368  0.8285  0.1043
14281SOL     OW44036   4.093   2.790   0.342 -0.5078 -0.0242  0.1497
14281SOL    HW144037   4.176   2.764   0.381 -0.4036  0.1113  0.0213
14281SOL    HW244038   4.060   2.711   0.300  0.3843  0.3191 -1.2750
14282SOL     OW44039   2.672   6.357   8.380 -0.1647  0.1150 -1.3558
14282SOL    HW144040   2.741   6.418   8.354  0.0278  0.6144  0.2159
14282SOL    HW244041   2.710   6.308   8.453 -1.2224 -0.0867 -0.9288
14283SOL     OW44042   3.236   7.112   3.672  0.9076  0.0332  0.1717
14283SOL    HW144043   3.325   7.088   3.645  0.7122  0.2461 -0.7009
14283SOL    HW244044   3.194   7.029   3.690  1.4585 -0.0372  1.1713
14284SOL     OW44045   0.906   5.956   6.903 -0.4943  0.3928 -0.0198
14284SOL    HW144046   0.936   5.888   6.844 -3.0558 -0.9613  0.0900
14284SOL    HW244047   0.893   5.912   6.987  1.1135  1.8371  1.0647
14285SOL     OW44048   7.339   2.951   5.664 -0.1289 -0.5243  0.3008
14285SOL    HW144049   7.312   3.037   5.634 -4.0706 -1.5729  0.3534
14285SOL    HW244050   7.393   2.968   5.741  0.0038  1.8800 -0.2495
14286SOL     OW44051   7.794   2.430   0.369  0.3755 -0.3402 -0.3088
14286SOL    HW144052   7.812   2.407   0.460 -0.4560 -2.4647 -0.6347
14286SOL    HW244053   7.845   2.510   0.355  1.2482 -0.4597  1.7345
14287SOL     OW44054   2.513   1.496   2.037 -0.3889 -0.3332 -0.1681
14287SOL    HW144055   2.442   1.493   2.102  0.9099 -1.6015  1.2722
14287SOL    HW244056   2.590   1.522   2.088  1.0149 -2.9626 -0.8152
14288SOL     OW44057   3.874   7.614   4.137 -0.1705 -0.3870 -0.4489
14288SOL    HW144058   3.884   7.567   4.219 -0.8013 -1.8006 -1.1424
14288SOL    HW244059   3.780   7.611   4.119 -0.0896  0.2466 -1.0339
14289SOL     OW44060   6.424   7.038   6.636 -0.0749  0.0683  0.2344
14289SOL    HW144061   6.481   7.075   6.569 -0.2111 -0.7163 -0.3249
14289SOL    HW244062   6.409   6.948   6.608 -0.6052 -0.0972  1.0169
14290SOL     OW44063   5.273   5.979   5.446  0.2503 -1.1880  0.9238
14290SOL    HW144064   5.264   6.071   5.469  0.3013 -1.1873  0.9429
14290SOL    HW244065   5.245   5.973   5.355  0.4802 -1.1114  0.8465
14291SOL     OW44066   1.876   5.379   5.698 -0.7555  0.2304  0.3579
14291SOL    HW144067   1.843   5.364   5.609  1.8570 -0.2945 -0.6311
14291SOL    HW244068   1.833   5.312   5.751  0.2084 -1.7840 -1.2475
14292SOL     OW44069   6.910   3.650   4.180  0.0118  0.2082 -0.1893
14292SOL    HW144070   6.891   3.610   4.264  1.3722  3.1640  1.6883
14292SOL    HW244071   6.826   3.658   4.136 -0.8327 -0.6893  1.2200
14293SOL     OW44072   7.522   6.684   7.251  0.0397  0.0544  0.0192
14293SOL    HW144073   7.614   6.658   7.263 -0.3571 -1.4848 -0.0483
14293SOL    HW244074   7.478   6.655   7.331 -0.7902 -1.3015 -0.8863
14294SOL     OW44075   3.114   3.665   3.952  0.4117  0.6922 -0.1351
14294SOL    HW144076   3.130   3.629   3.865  0.9901  1.0100 -0.1622
14294SOL    HW244077   3.051   3.604   3.992  0.5440  0.2608 -0.5766
14295SOL     OW44078   8.048   7.346   4.788  0.0764  0.7377 -0.2356
14295SOL    HW144079   8.079   7.433   4.763  2.0282 -0.3361 -1.8106
14295SOL    HW244080   8.100   7.323   4.864  0.5994  0.3795 -0.6969
14296SOL     OW44081   8.260   1.657   8.135 -0.1762  0.6094 -0.6756
14296SOL    HW144082   8.219   1.582   8.177  2.2489 -0.4965 -0.1009
14296SOL    HW244083   8.271   1.631   8.044  2.9091 -0.8921  0.0108
14297SOL     OW44084   6.355   7.300   5.769 -0.0556  0.1659 -0.6546
14297SOL    HW144085   6.379   7.265   5.854  2.4653 -1.0561 -1.7523
14297SOL    HW244086   6.261   7.283   5.761 -0.1812 -0.3659  1.5419
14298SOL     OW44087   7.007   3.293   4.265  0.3094 -0.2619  0.2121
14298SOL    HW144088   7.041   3.237   4.195  0.3118 -1.9126  1.4928
14298SOL    HW244089   7.082   3.347   4.290  0.7182 -0.6916 -0.0587
14299SOL     OW44090   3.229   2.606   3.524 -0.5737 -0.1743 -0.4685
14299SOL    HW144091   3.178   2.563   3.593 -0.7913 -2.0570 -1.7275
14299SOL    HW244092   3.312   2.629   3.565 -0.7182 -1.2203  0.4345
14300SOL     OW44093   7.075   4.042   7.418  0.1244 -0.0064 -0.1145
14300SOL    HW144094   7.064   4.091   7.336  1.5974  1.7028  0.6372
14300SOL    HW244095   7.056   4.106   7.487  3.9179  0.1889  0.9525
14301SOL     OW44096   5.884   6.113   6.052  0.1201 -0.2857  0.6097
14301SOL    HW144097   5.855   6.032   6.094  2.1781 -0.8236  1.0771
14301SOL    HW244098   5.945   6.085   5.984  1.2445  0.8612  1.0959
14302SOL     OW44099   8.083   3.000   8.146 -0.6383  0.1529  0.2167
14302SOL    HW144100   8.066   2.912   8.180 -0.7886  0.3033  0.5365
14302SOL    HW244101   8.177   3.013   8.158 -0.8540  0.6258  1.6130
14303SOL     OW44102   3.002   7.356   5.844 -0.0114 -0.0761  0.0885
14303SOL    HW144103   3.063   7.300   5.892 -1.5331 -0.6249  1.4487
14303SOL    HW244104   2.917   7.312   5.852 -0.7880  1.1727 -0.9135
14304SOL     OW44105   5.306   4.875   7.075  0.0507 -0.1696 -0.3721
14304SOL    HW144106   5.224   4.829   7.060 -0.5073  1.3328 -2.5289
14304SOL    HW244107   5.318   4.928   6.996  1.6779  1.7845  1.0809
14305SOL     OW44108   5.610   7.812   2.210 -0.1079 -0.3102 -0.2592
14305SOL    HW144109   5.528   7.831   2.165 -0.0083 -0.6155 -0.5689
14305SOL    HW244110   5.592   7.734   2.262 -0.2340  0.0621  0.2685
14306SOL     OW44111   3.740   5.121   6.606 -0.8045  0.1137  0.0247
14306SOL    HW144112   3.754   5.074   6.688 -0.1624 -2.3840 -1.4176
14306SOL    HW244113   3.775   5.063   6.538 -2.8142  1.3060 -2.2006
14307SOL     OW44114   3.388   3.113   4.775 -0.4319 -0.3699  0.3249
14307SOL    HW144115   3.305   3.110   4.823  0.1044 -2.5427  1.2667
14307SOL    HW244116   3.369   3.069   4.692 -0.5434  0.3911 -0.0608
14308SOL     OW44117   0.876   7.036   0.971  0.6421  0.6139  0.5152
14308SOL    HW144118   0.884   7.129   0.948  0.9538  0.6592  0.7858
14308SOL    HW244119   0.817   7.035   1.046 -1.2999  0.3583 -0.9530
14309SOL     OW44120   8.375   1.430   8.402  0.2078 -0.0246  0.3401
14309SOL    HW144121   8.330   1.428   8.487 -0.2639  0.2727  0.1027
14309SOL    HW244122   8.463   1.462   8.423  1.4518 -3.5723  1.2815
14310SOL     OW44123   5.025   3.996   1.948 -0.3060 -0.4278  0.3656
14310SOL    HW144124   5.116   4.024   1.944 -0.3745 -0.1583  0.6200
14310SOL    HW244125   5.009   3.952   1.865  0.3474 -1.3684  0.7186
14311SOL     OW44126   3.550   6.002   3.181 -0.2048 -0.3258  0.7574
14311SOL    HW144127   3.543   5.906   3.181  0.7630 -0.4190 -0.2238
14311SOL    HW244128   3.557   6.025   3.088 -1.5972  0.8121  0.8999
14312SOL     OW44129   1.698   2.212   4.081  0.5753  0.9231 -0.0204
14312SOL    HW144130   1.783   2.239   4.047  0.4925 -0.0169 -1.0267
14312SOL    HW244131   1.713   2.125   4.118  0.1400  0.9128  0.1450
14313SOL     OW44132   3.059   5.553   3.408 -0.0795  0.4189  0.4324
14313SOL    HW144133   2.981   5.606   3.391  0.0855  0.3828 -0.4922
14313SOL    HW244134   3.120   5.613   3.451 -0.2291  0.7268  0.2177
14314SOL     OW44135   4.394   3.758   7.668 -0.0992  0.0899  0.3733
14314SOL    HW144136   4.396   3.729   7.759 -0.1218 -0.2441  0.2695
14314SOL    HW244137   4.481   3.795   7.652 -0.1002  0.1589  0.5331
14315SOL     OW44138   6.777   4.722   0.792 -0.0525 -0.2297 -0.0151
14315SOL    HW144139   6.864   4.749   0.761  0.6116 -1.8665  0.3164
14315SOL    HW244140   6.731   4.805   0.808  1.6131  0.6928  0.2649
14316SOL     OW44141   6.246   7.960   1.613 -0.0364 -0.0337 -0.0499
14316SOL    HW144142   6.194   8.023   1.663  0.6243 -0.8062  1.7306
14316SOL    HW244143   6.257   7.886   1.673  3.5041  0.2979 -0.0632
14317SOL     OW44144   5.743   3.261   4.196  0.6821 -0.0255 -0.0211
14317SOL    HW144145   5.783   3.262   4.283  1.2541 -0.0091 -0.2762
14317SOL    HW244146   5.751   3.171   4.166 -1.6356 -0.5769  0.8798
14318SOL     OW44147   3.833   5.892   8.299  0.0942 -0.5280 -0.1202
14318SOL    HW144148   3.773   5.929   8.364 -0.8996 -2.1911 -0.0447
14318SOL    HW244149   3.817   5.944   8.220 -0.3118  0.0483  0.3297
14319SOL     OW44150   3.965   3.423   2.281  0.4508 -0.2679  0.0407
14319SOL    HW144151   3.908   3.380   2.216  1.0811  2.2879 -2.3786
14319SOL    HW244152   4.024   3.354   2.310 -1.9817 -2.3196  0.5113
14320SOL     OW44153   5.471   4.416   0.948 -0.0634  0.2802  0.3695
14320SOL    HW144154   5.491   4.416   0.854 -0.2955 -0.0848  0.3179
14320SOL    HW244155   5.471   4.509   0.972 -0.4152  0.4005 -0.0804
14321SOL     OW44156   0.496   6.296   0.395  0.0662  0.3054 -0.1158
14321SOL    HW144157   0.581   6.257   0.376 -0.2264  0.1985 -1.2975
14321SOL    HW244158   0.509   6.345   0.476  1.5098  1.1070 -0.8030
14322SOL     OW44159   4.971   6.372   7.904 -0.1558  0.6343  0.1637
14322SOL    HW144160   4.893   6.372   7.960 -0.9105 -0.8868 -0.8139
14322SOL    HW244161   5.010   6.458   7.918 -2.7596  2.0069 -0.3050
14323SOL     OW44162   6.424   6.641   4.106  0.9716  0.6517 -0.5171
14323SOL    HW144163   6.457   6.608   4.190 -0.4878  0.1446 -0.1245
14323SOL    HW244164   6.487   6.709   4.081  1.0151  1.3512  1.3602
14324SOL     OW44165   5.899   1.133   6.027 -0.5012 -0.2133 -0.0643
14324SOL    HW144166   5.912   1.227   6.040 -1.2154 -0.1281  0.0868
14324SOL    HW244167   5.891   1.098   6.116  0.8222 -0.5889 -0.0704
14325SOL     OW44168   6.757   6.325   8.351  0.1983 -0.0180  0.0612
14325SOL    HW144169   6.758   6.394   8.285  0.9444  0.3573  0.4528
14325SOL    HW244170   6.691   6.353   8.414 -2.2497 -1.5068 -1.6554
14326SOL     OW44171   1.266   7.872   3.913 -0.3005  0.0384 -0.4297
14326SOL    HW144172   1.246   7.801   3.973 -4.2179  0.5006 -0.9344
14326SOL    HW244173   1.263   7.951   3.967 -0.3099  0.1700 -0.6216
14327SOL     OW44174   3.314   1.837   5.283 -0.2048 -0.0802  0.0264
14327SOL    HW144175   3.302   1.865   5.374 -0.4558  3.5498 -0.9823
14327SOL    HW244176   3.225   1.832   5.248 -0.1663 -2.2681  0.0979
14328SOL     OW44177   0.274   0.411   2.529 -0.5285  0.0159 -0.3608
14328SOL    HW144178   0.268   0.458   2.612 -1.6538  0.3751 -0.6255
14328SOL    HW244179   0.237   0.325   2.547 -0.5510  0.0096 -0.4362
14329SOL     OW44180   3.101   6.974   7.396  0.2406  0.8027  0.9475
14329SOL    HW144181   3.070   6.893   7.354  0.0881  1.4813 -0.2982
14329SOL    HW244182   3.053   6.978   7.478 -2.2837  1.2751 -0.4467
14330SOL     OW44183   0.594   4.066   1.367 -0.0647  0.5732  0.2596
14330SOL    HW144184   0.635   3.996   1.317  2.5486  0.5439  2.1943
14330SOL    HW244185   0.662   4.133   1.375 -1.2850  1.7484  1.4260
14331SOL     OW44186   3.994   4.103   2.303 -0.2787 -0.0728 -0.4046
14331SOL    HW144187   4.086   4.127   2.305  0.0055 -1.1018  0.5383
14331SOL    HW244188   3.947   4.186   2.308  0.6138  0.4130  0.2663
14332SOL     OW44189   7.768   1.100   5.209 -0.2171  1.0579  0.4565
14332SOL    HW144190   7.744   1.133   5.122 -0.1823  1.2513  0.5177
14332SOL    HW244191   7.774   1.005   5.198 -0.8298  1.0219  0.4022
14333SOL     OW44192   8.424   4.745   6.945  0.1196  0.6490 -0.2908
14333SOL    HW144193   8.444   4.782   6.859 -1.8254 -1.4544 -1.7712
14333SOL    HW244194   8.489   4.676   6.958  0.3643  0.9132 -0.0937
14334SOL     OW44195   3.649   0.505   8.480 -0.0861  0.2466  0.9309
14334SOL    HW144196   3.699   0.524   8.400  0.2983  0.0310  1.1170
14334SOL    HW244197   3.693   0.555   8.549 -0.8168  0.9527  0.8900
14335SOL     OW44198   6.888   3.583   4.542 -0.4433  0.0647  0.1073
14335SOL    HW144199   6.813   3.626   4.583  0.2015 -0.4820  1.9858
14335SOL    HW244200   6.868   3.490   4.547  0.2054 -0.0671  0.3272
14336SOL     OW44201   3.579   4.308   4.307  0.1244 -0.2116 -0.0334
14336SOL    HW144202   3.514   4.364   4.265  2.0322 -0.1465 -3.1282
14336SOL    HW244203   3.555   4.310   4.400 -2.9915  1.4519 -0.7335
14337SOL     OW44204   6.909   5.647   2.378 -0.0708  0.0611  0.3286
14337SOL    HW144205   6.990   5.680   2.416 -0.0020 -0.4232  0.6239
14337SOL    HW244206   6.847   5.647   2.451 -0.1057 -0.3282  0.3020
14338SOL     OW44207   4.698   1.335   4.509  0.2396  0.6029  0.5394
14338SOL    HW144208   4.756   1.393   4.559  0.5846  0.9275 -0.2192
14338SOL    HW244209   4.755   1.296   4.443 -0.0616 -0.3484  0.8163
14339SOL     OW44210   7.671   4.631   0.093  0.6929 -0.0920  0.3568
14339SOL    HW144211   7.656   4.536   0.098  0.7739 -0.1331 -0.1011
14339SOL    HW244212   7.653   4.653   0.001 -1.2992  0.6880  0.8969
14340SOL     OW44213   2.781   1.717   6.488  0.2733 -0.0652  0.2618
14340SOL    HW144214   2.860   1.664   6.474  1.3368  0.8661  2.3396
14340SOL    HW244215   2.755   1.698   6.578 -0.6669  1.2238  0.2878
14341SOL     OW44216   5.647   3.864   3.144  0.3356 -0.2751  0.3008
14341SOL    HW144217   5.718   3.913   3.185  1.1112 -2.2418  1.4490
14341SOL    HW244218   5.576   3.865   3.209  0.3726 -0.6956  0.3494
14342SOL     OW44219   1.884   6.795   3.956 -0.0751  0.1786 -0.1732
14342SOL    HW144220   1.905   6.870   3.900  1.4460  0.8138  1.1447
14342SOL    HW244221   1.832   6.833   4.027 -0.3168 -0.2471 -0.1183
14343SOL     OW44222   3.641   0.619   5.963  0.3829  0.1389 -0.1402
14343SOL    HW144223   3.568   0.622   5.902 -0.4714  0.3558  0.8531
14343SOL    HW244224   3.717   0.648   5.912 -0.1358 -0.4991 -1.2977
14344SOL     OW44225   2.403   7.929   6.382 -0.2604  0.0398 -0.5192
14344SOL    HW144226   2.455   7.863   6.336 -0.5661  0.9939 -2.3168
14344SOL    HW244227   2.328   7.880   6.416  0.8132 -0.9887  0.4449
14345SOL     OW44228   6.407   4.011   2.479 -0.0352  0.0473 -0.2907
14345SOL    HW144229   6.357   4.054   2.409 -2.7547 -1.7386  0.3581
14345SOL    HW244230   6.435   3.928   2.440 -0.2441 -0.2914  0.2745
14346SOL     OW44231   5.007   6.640   7.281  0.6444  0.4844  0.3114
14346SOL    HW144232   5.046   6.584   7.348 -0.8953  1.7071  2.3486
14346SOL    HW244233   5.075   6.704   7.259  1.1240  0.1491  0.8152
14347SOL     OW44234   1.063   5.631   2.995 -0.4666  0.1111  0.2517
14347SOL    HW144235   1.079   5.722   2.969 -0.5832  0.2313  0.5928
14347SOL    HW244236   1.074   5.631   3.090  1.4151 -0.6405  0.0638
14348SOL     OW44237   1.516   6.464   3.910  0.2062  0.3890  0.2364
14348SOL    HW144238   1.447   6.518   3.947 -0.7056 -0.7547  0.2590
14348SOL    HW244239   1.591   6.476   3.969 -0.1736  1.1331  0.5773
14349SOL     OW44240   3.512   7.049   7.106 -0.0573 -0.3335 -0.0961
14349SOL    HW144241   3.418   7.062   7.121  0.1534  0.1762  0.9172
14349SOL    HW244242   3.542   7.002   7.184  0.2767 -1.8210 -1.0906
14350SOL     OW44243   3.964   8.586   2.756 -0.3603  0.3250 -0.0401
14350SOL    HW144244   3.952   8.515   2.818 -1.1155  0.4433 -0.0488
14350SOL    HW244245   3.993   8.543   2.676 -0.8084  0.0262 -0.0448
14351SOL     OW44246   6.520   6.099   8.282  0.2207 -0.2204 -0.2310
14351SOL    HW144247   6.577   6.051   8.223  0.2543  0.3984 -0.7098
14351SOL    HW244248   6.490   6.175   8.231  0.9610  0.8212  0.8190
14352SOL     OW44249   3.474   5.748   1.225  0.0777 -0.3056 -0.1015
14352SOL    HW144250   3.473   5.729   1.132  1.0341  0.0806 -0.1972
14352SOL    HW244251   3.489   5.663   1.267  0.4473 -0.3599 -0.3408
14353SOL     OW44252   5.735   8.372   3.794 -0.6149  0.4008 -0.0390
14353SOL    HW144253   5.687   8.441   3.748 -0.4535  0.7388  0.2943
14353SOL    HW244254   5.668   8.316   3.831 -0.7773 -0.6028 -1.7292
14354SOL     OW44255   5.355   3.887   7.938 -0.4548 -0.2345  0.1040
14354SOL    HW144256   5.399   3.923   8.016 -1.2032 -0.4035  0.6105
14354SOL    HW244257   5.422   3.832   7.897 -0.6130 -1.7064  1.6893
14355SOL     OW44258   3.165   2.068   6.609  0.1749 -0.0172 -0.3884
14355SOL    HW144259   3.115   2.030   6.681 -1.2733 -0.7371 -1.6962
14355SOL    HW244260   3.143   2.014   6.533  2.4451  0.0771 -1.1976
14356SOL     OW44261   1.743   4.989   1.243  0.0786  0.3891  0.0570
14356SOL    HW144262   1.759   4.992   1.337 -0.3268 -0.7480  0.1836
14356SOL    HW244263   1.655   4.951   1.235  0.6609 -0.8475 -0.7916
14357SOL     OW44264   4.501   2.755   1.966  0.5663  0.2971  0.1876
14357SOL    HW144265   4.510   2.762   1.871  0.1618 -0.0661  0.1224
14357SOL    HW244266   4.590   2.737   1.997  0.7976  0.9351 -0.0680
14358SOL     OW44267   1.517   5.395   5.688  0.2495 -0.1652  0.1164
14358SOL    HW144268   1.560   5.350   5.761 -1.0474 -1.0449  0.3571
14358SOL    HW244269   1.547   5.486   5.696  2.3989 -0.8050  0.0077
14359SOL     OW44270   3.799   7.644   2.807 -0.7384  0.4502 -0.2277
14359SOL    HW144271   3.812   7.734   2.775 -1.1931  0.1519 -1.2825
14359SOL    HW244272   3.720   7.650   2.861 -0.5656  0.7502 -0.0008
14360SOL     OW44273   6.196   6.382   6.354 -0.9334 -0.5544  0.7329
14360SOL    HW144274   6.104   6.406   6.355 -0.6489  0.6443 -0.0762
14360SOL    HW244275   6.211   6.349   6.265 -0.0724  1.4247  0.1028
14361SOL     OW44276   1.629   0.773   1.881  0.1207  0.2194  0.2961
14361SOL    HW144277   1.537   0.752   1.868  0.2972 -0.6198  0.3885
14361SOL    HW244278   1.631   0.822   1.964 -0.2401  0.2621  0.2795
14362SOL     OW44279   5.769   6.784   2.729 -0.1621  0.4500  0.7185
14362SOL    HW144280   5.717   6.840   2.672 -0.7937 -1.4729 -0.7249
14362SOL    HW244281   5.711   6.767   2.804  0.0737  1.7340  1.2178
14363SOL     OW44282   4.401   1.090   2.257  0.1101 -0.8090  0.3526
14363SOL    HW144283   4.352   1.092   2.175  0.5986  1.8763  0.0109
14363SOL    HW244284   4.347   1.037   2.316 -1.9221 -0.1132 -0.7614
14364SOL     OW44285   7.897   3.674   2.258  0.0346  0.3579  0.2264
14364SOL    HW144286   7.964   3.717   2.311  0.0080  0.3953  0.2293
14364SOL    HW244287   7.857   3.610   2.317  2.0720 -1.7985 -0.5425
14365SOL     OW44288   0.766   1.444   5.549 -0.1171  0.7884  0.2806
14365SOL    HW144289   0.700   1.512   5.544 -0.7187  0.3149  1.4791
14365SOL    HW244290   0.839   1.484   5.595  1.1527  1.8217 -2.4195
14366SOL     OW44291   5.640   7.564   3.984  0.2052 -0.3628  0.3263
14366SOL    HW144292   5.628   7.642   4.038  0.0584 -0.1506 -0.0076
14366SOL    HW244293   5.581   7.578   3.910 -1.3597 -1.7027  1.2502
14367SOL     OW44294   2.418   8.296   5.126 -0.4387 -0.0800 -0.3586
14367SOL    HW144295   2.414   8.327   5.217 -0.2248 -1.0978  0.0079
14367SOL    HW244296   2.385   8.206   5.130  1.2747 -0.7738 -0.9779
14368SOL     OW44297   0.802   1.260   1.645  0.0857 -0.0008  0.4189
14368SOL    HW144298   0.772   1.172   1.623  1.3303 -0.2936 -0.2316
14368SOL    HW244299   0.770   1.275   1.734 -0.4262 -0.9734  0.4138
14369SOL     OW44300   3.610   8.491   3.105 -0.4563  0.2946 -0.3182
14369SOL    HW144301   3.519   8.490   3.076 -1.0992 -1.0457  1.5832
14369SOL    HW244302   3.612   8.433   3.181  1.7515  1.2001  0.3960
14370SOL     OW44303   4.045   3.897   2.121 -0.2674 -0.4469  0.2444
14370SOL    HW144304   3.966   3.869   2.075 -0.1806  1.5168 -1.2679
14370SOL    HW244305   4.018   3.974   2.171  0.3183 -0.8195  1.1623
14371SOL     OW44306   5.087   1.356   4.549  0.4274 -0.2004  0.0194
14371SOL    HW144307   5.026   1.316   4.486  1.5243  0.2755 -1.3936
14371SOL    HW244308   5.104   1.287   4.613 -0.0275 -1.0088 -0.7064
14372SOL     OW44309   1.027   8.014   7.248  0.0896 -0.1911  0.6216
14372SOL    HW144310   1.110   8.021   7.202 -0.1768 -1.5794 -0.1206
14372SOL    HW244311   1.050   8.012   7.340  0.8010  0.2888  0.4609
14373SOL     OW44312   7.464   8.529   6.858 -0.7138  0.1560 -0.2135
14373SOL    HW144313   7.401   8.457   6.849 -1.7601  1.1112 -0.9109
14373SOL    HW244314   7.529   8.513   6.790 -0.5155 -0.5374  0.1345
14374SOL     OW44315   3.605   3.370   7.084 -0.4202 -0.0041  0.0837
14374SOL    HW144316   3.575   3.283   7.061 -2.4778  0.5337  0.5565
14374SOL    HW244317   3.545   3.429   7.040  2.1757  1.3163 -1.9680
14375SOL     OW44318   0.193   3.982   4.370  0.1868  0.0446 -0.3457
14375SOL    HW144319   0.272   3.992   4.317  0.5223 -0.6741  0.0071
14375SOL    HW244320   0.181   3.887   4.377 -0.0667  0.1374  0.5631
14376SOL     OW44321   7.965   0.401   6.740 -0.5098  0.1171  0.4776
14376SOL    HW144322   7.893   0.437   6.793 -1.0035  0.4890 -0.4129
14376SOL    HW244323   7.970   0.309   6.765 -2.8399 -0.5039 -1.0609
14377SOL     OW44324   1.505   5.689   5.067  0.2393  0.1806 -0.7628
14377SOL    HW144325   1.593   5.726   5.076  0.1700  0.1169  0.3824
14377SOL    HW244326   1.448   5.766   5.060  0.0112  0.4551  2.4047
14378SOL     OW44327   0.595   0.206   3.574  0.2661 -0.2155 -0.1839
14378SOL    HW144328   0.594   0.300   3.591 -1.0277 -0.0551 -0.9742
14378SOL    HW244329   0.520   0.172   3.624 -0.4507 -0.5064 -1.4144
14379SOL     OW44330   7.224   4.779   1.943 -0.2350  0.3030 -0.3907
14379SOL    HW144331   7.231   4.853   1.883 -0.1341 -0.2810 -1.1014
14379SOL    HW244332   7.288   4.799   2.012  0.2222  0.5820 -0.8915
14380SOL     OW44333   5.473   5.929   0.825  0.1000 -0.3903 -0.0449
14380SOL    HW144334   5.431   5.989   0.764 -0.9889 -0.7385  0.3430
14380SOL    HW244335   5.439   5.843   0.803  0.8868 -0.7395  0.0534
14381SOL     OW44336   2.081   4.339   2.116  0.1372  0.1430  0.2503
14381SOL    HW144337   2.092   4.361   2.209  0.5559 -0.8954  0.4542
14381SOL    HW244338   2.129   4.408   2.069  0.6460  0.1876  0.8304
14382SOL     OW44339   6.382   4.598   7.505  0.1259 -0.0932  0.1353
14382SOL    HW144340   6.404   4.522   7.452 -0.6383 -0.5837  0.5014
14382SOL    HW244341   6.314   4.567   7.564 -1.5603  1.3333 -0.9511
14383SOL     OW44342   5.902   5.507   4.921 -0.1363  0.3266 -0.2607
14383SOL    HW144343   5.937   5.419   4.932  0.2142  0.6603  1.6596
14383SOL    HW244344   5.813   5.502   4.957 -0.7547  0.3744 -1.7173
14384SOL     OW44345   4.681   5.739   5.794  0.0575  0.2547 -0.3489
14384SOL    HW144346   4.700   5.672   5.728 -3.2984  0.1223 -1.3815
14384SOL    HW244347   4.644   5.812   5.744 -0.5963  1.0292  1.1945
14385SOL     OW44348   0.382   0.854   8.385 -0.0636  0.3273  0.8105
14385SOL    HW144349   0.456   0.859   8.446 -0.5709  0.1301  1.4579
14385SOL    HW244350   0.350   0.764   8.394 -2.0255  1.1312  2.5539
14386SOL     OW44351   2.661   3.608   1.266 -0.2182 -0.2794  0.5840
14386SOL    HW144352   2.569   3.608   1.294 -1.1268  0.0060 -2.0943
14386SOL    HW244353   2.670   3.689   1.216  1.0667 -1.0117 -0.4257
14387SOL     OW44354   4.044   4.149   2.618  0.3872 -0.1033 -0.2683
14387SOL    HW144355   4.059   4.087   2.689 -0.2362 -0.3370 -0.3328
14387SOL    HW244356   3.960   4.122   2.580 -0.6852  1.7226  0.6882
14388SOL     OW44357   8.153   1.022   7.417  0.4491  0.1212  0.2640
14388SOL    HW144358   8.103   1.080   7.475 -0.5578  0.8526 -1.2603
14388SOL    HW244359   8.100   0.943   7.410 -1.7919  1.6651 -3.0002
14389SOL     OW44360   0.406   2.859   5.470  0.1557 -0.2116  0.5792
14389SOL    HW144361   0.404   2.922   5.398 -1.2305 -1.3106 -0.3944
14389SOL    HW244362   0.476   2.798   5.446  0.1431 -0.1961  0.5014
14390SOL     OW44363   0.981   7.174   2.425 -0.2860 -0.2891 -0.5536
14390SOL    HW144364   1.021   7.191   2.340  1.5509  0.3765  0.3642
14390SOL    HW244365   0.980   7.260   2.468 -0.7065 -0.6875  0.2660
14391SOL     OW44366   5.706   3.345   0.208  0.1020  0.3339  0.6353
14391SOL    HW144367   5.797   3.314   0.208  0.1349  0.3746 -0.3074
14391SOL    HW244368   5.654   3.265   0.212  0.1924  0.2350  0.0534
14392SOL     OW44369   6.576   1.425   6.844 -0.3889 -0.2323  0.3513
14392SOL    HW144370   6.540   1.512   6.827  0.9094  0.4114  0.7077
14392SOL    HW244371   6.536   1.398   6.927 -1.1969 -0.2182 -0.0247
14393SOL     OW44372   1.151   4.856   0.543 -0.1405 -0.3043  0.3438
14393SOL    HW144373   1.215   4.909   0.591  0.4244 -1.6990  1.2034
14393SOL    HW244374   1.066   4.896   0.563  0.0788 -0.8088  2.5302
14394SOL     OW44375   8.007   0.101   3.404 -0.6113 -0.4573 -0.0185
14394SOL    HW144376   7.942   0.074   3.468  0.3418  2.9334  2.6752
14394SOL    HW244377   7.960   0.163   3.347  0.2100  2.9254  2.6494
14395SOL     OW44378   5.722   0.927   0.687  0.3513  0.5208  0.0229
14395SOL    HW144379   5.703   0.998   0.626  1.4149  0.3880 -0.4762
14395SOL    HW244380   5.638   0.882   0.698  0.0797  0.7145 -1.1213
14396SOL     OW44381   4.383   2.722   7.738  0.7478 -0.0761  0.5743
14396SOL    HW144382   4.325   2.756   7.669  0.1519 -0.6549  0.7739
14396SOL    HW244383   4.330   2.655   7.782  1.5780 -0.6333  0.7471
14397SOL     OW44384   3.491   5.267   5.331 -0.4136  0.3778  0.1274
14397SOL    HW144385   3.537   5.338   5.375  1.1097  0.2178 -1.0937
14397SOL    HW244386   3.519   5.188   5.377 -0.1514  0.3610 -0.0575
14398SOL     OW44387   6.802   3.082   5.540  0.1117  0.6062  0.0896
14398SOL    HW144388   6.869   3.150   5.537 -0.7940  1.4975 -0.5748
14398SOL    HW244389   6.813   3.041   5.626 -0.2956  2.6234  1.1776
14399SOL     OW44390   5.043   4.416   2.724 -0.5510  0.2081  0.7584
14399SOL    HW144391   5.111   4.442   2.786 -1.7220 -1.2839  2.8026
14399SOL    HW244392   4.998   4.498   2.702  0.4790  0.8948  1.1208
14400SOL     OW44393   6.757   2.573   2.213 -0.1229 -0.1610 -0.0928
14400SOL    HW144394   6.719   2.497   2.256  0.9207  0.2884  1.7189
14400SOL    HW244395   6.848   2.549   2.195  0.2130  0.6301  0.4739
14401SOL     OW44396   1.701   0.001   0.747  0.2171  0.9698  0.6493
14401SOL    HW144397   1.641  -0.068   0.774 -0.9759  1.4780 -0.6400
14401SOL    HW244398   1.774  -0.005   0.810  0.0446 -1.2894  0.7067
14402SOL     OW44399   2.303   7.241   6.357 -0.7154  0.4227 -1.0646
14402SOL    HW144400   2.297   7.191   6.438  1.2346  0.8577 -0.6043
14402SOL    HW244401   2.245   7.316   6.371 -0.8737  0.1726 -0.3155
14403SOL     OW44402   4.483   7.985   7.190  0.8828 -0.4409 -0.4694
14403SOL    HW144403   4.564   8.020   7.153  1.6363 -1.7249 -0.0762
14403SOL    HW244404   4.444   8.059   7.237  2.9171 -0.3273  1.1872
14404SOL     OW44405   6.784   0.752   4.592 -0.1961  0.3750 -0.4820
14404SOL    HW144406   6.824   0.721   4.673 -0.1654 -0.2729 -0.7385
14404SOL    HW244407   6.856   0.754   4.529 -0.2576  0.6934 -0.5436
14405SOL     OW44408   6.159   3.576   0.727  0.0302 -0.0480  0.5561
14405SOL    HW144409   6.086   3.558   0.667 -0.7826  3.9613  0.0412
14405SOL    HW244410   6.116   3.600   0.809  1.0604 -2.4960  1.9175
14406SOL     OW44411   7.543   0.767   2.951 -0.0409 -0.4885  0.4616
14406SOL    HW144412   7.500   0.847   2.981  2.9919  1.4746  0.0017
14406SOL    HW244413   7.510   0.754   2.862  0.4574  1.0724  0.0304
14407SOL     OW44414   2.784   0.441   6.343  0.5351  0.0917 -0.3376
14407SOL    HW144415   2.846   0.466   6.411  1.1562  0.3249 -0.9749
14407SOL    HW244416   2.751   0.355   6.371 -2.1258  1.7518  2.2027
14408SOL     OW44417   6.801   5.062   2.800  0.1624  0.0001 -0.6770
14408SOL    HW144418   6.826   5.077   2.892 -0.5776 -0.9134 -0.3238
14408SOL    HW244419   6.881   5.082   2.751  0.7489 -0.0854  0.2135
14409SOL     OW44420   4.634   1.213   4.796 -0.1698 -0.0569  0.2727
14409SOL    HW144421   4.558   1.225   4.854 -1.5990  0.6455 -1.6485
14409SOL    HW244422   4.606   1.249   4.712  1.6928 -1.3928 -0.9932
14410SOL     OW44423   0.143   0.782   2.516  0.0126 -0.1309 -0.1907
14410SOL    HW144424   0.210   0.835   2.473  0.9344 -0.7444  0.4575
14410SOL    HW244425   0.075   0.769   2.449  1.0471 -0.4179 -1.2089
14411SOL     OW44426   6.337   0.910   5.201  0.2222  0.2432  0.0274
14411SOL    HW144427   6.258   0.858   5.217  0.6990 -0.2749  0.7951
14411SOL    HW244428   6.392   0.854   5.147 -0.1276  0.8061 -0.9422
14412SOL     OW44429   7.519   6.833   5.630 -0.5500  0.5321 -0.7007
14412SOL    HW144430   7.448   6.771   5.647 -0.7854  0.9774 -0.0579
14412SOL    HW244431   7.484   6.918   5.655 -0.9110  1.2532 -3.3403
14413SOL     OW44432   4.397   3.732   4.609 -0.1709  0.0747 -0.4919
14413SOL    HW144433   4.460   3.737   4.681 -2.0318  1.9755  1.1505
14413SOL    HW244434   4.311   3.730   4.653 -1.3262 -1.1199 -2.6463
14414SOL     OW44435   6.618   5.198   2.088 -0.1775  0.2108 -0.0488
14414SOL    HW144436   6.606   5.272   2.147  0.4253 -0.4465  0.9319
14414SOL    HW244437   6.704   5.163   2.110  0.4744  0.4740 -1.9577
14415SOL     OW44438   3.082   7.062   0.137 -0.2616  0.3371 -0.4282
14415SOL    HW144439   3.154   7.065   0.200 -0.1972  2.7193 -0.5314
14415SOL    HW244440   3.013   7.012   0.181 -0.9040  3.4048  2.3723
14416SOL     OW44441   1.593   7.395   1.819  0.3578 -0.3237 -0.0159
14416SOL    HW144442   1.659   7.465   1.821  1.2391 -1.1283  2.1856
14416SOL    HW244443   1.643   7.315   1.805 -0.5890 -0.6368 -1.9830
14417SOL     OW44444   1.690   7.307   0.962  0.1531 -0.6604  0.2942
14417SOL    HW144445   1.676   7.379   0.899  0.1548 -0.7603  0.1792
14417SOL    HW244446   1.766   7.260   0.927 -0.2791 -1.1339 -0.0156
14418SOL     OW44447   4.484   4.472   7.370  0.1913 -0.1741  0.1565
14418SOL    HW144448   4.457   4.400   7.428 -1.5618  1.4520  1.5097
14418SOL    HW244449   4.569   4.499   7.404  1.0396 -1.7860 -0.5945
14419SOL     OW44450   4.438   8.359   4.832  0.6109 -0.3476  0.1296
14419SOL    HW144451   4.435   8.455   4.842  0.7852 -0.5027  1.8993
14419SOL    HW244452   4.353   8.329   4.863 -0.3074 -0.6647 -2.4465
14420SOL     OW44453   7.447   8.202   7.479 -0.0117 -0.0359  0.6145
14420SOL    HW144454   7.394   8.263   7.530 -0.2698  0.6189 -0.4065
14420SOL    HW244455   7.518   8.255   7.443 -0.2065 -0.3250 -0.2387
14421SOL     OW44456   4.922   4.799   4.982 -1.1918 -0.4123  0.1330
14421SOL    HW144457   4.852   4.833   5.038 -0.9555  1.2973 -0.5437
14421SOL    HW244458   4.995   4.860   4.994 -0.3956 -1.2165 -0.4384
14422SOL     OW44459   1.045   7.700   4.482  0.7393  0.4242 -0.0364
14422SOL    HW144460   0.964   7.691   4.432  0.7623 -0.1731  0.0266
14422SOL    HW244461   1.074   7.790   4.466  0.0356  0.6564 -0.0114
14423SOL     OW44462   5.715   5.182   7.935 -0.8175  0.0605 -0.1633
14423SOL    HW144463   5.742   5.207   7.847 -0.2130 -0.3881 -0.1189
14423SOL    HW244464   5.660   5.105   7.922  0.5500 -0.9807 -0.0823
14424SOL     OW44465   4.395   3.183   6.417  0.1132  0.1357  0.7729
14424SOL    HW144466   4.474   3.183   6.472 -1.0890 -0.2843  2.5788
14424SOL    HW244467   4.353   3.267   6.435  1.7736  1.9641 -2.8126
14425SOL     OW44468   2.793   3.602   8.304  0.3022  0.5406  0.3297
14425SOL    HW144469   2.853   3.674   8.287  0.3061  0.4386 -0.1069
14425SOL    HW244470   2.742   3.630   8.380  3.2602 -0.8132  3.0662
14426SOL     OW44471   7.704   6.630   6.992  0.2446 -0.0923 -0.1873
14426SOL    HW144472   7.689   6.536   6.982  2.2871 -0.6740  1.4561
14426SOL    HW244473   7.682   6.649   7.083  0.5696  0.8674 -0.2887
14427SOL     OW44474   3.813   6.274   4.365 -0.4434 -0.1344  0.2671
14427SOL    HW144475   3.909   6.271   4.364 -0.3995 -0.2876  1.8209
14427SOL    HW244476   3.786   6.201   4.309  0.3293  0.4742 -0.9219
14428SOL     OW44477   1.662   5.209   5.182 -0.3242  0.2917  0.4763
14428SOL    HW144478   1.604   5.277   5.146 -0.4352 -0.6030 -1.1350
14428SOL    HW244479   1.750   5.240   5.162 -0.3343 -1.7095 -3.9746
14429SOL     OW44480   6.398   6.334   8.174 -0.1276 -0.3686 -0.3827
14429SOL    HW144481   6.450   6.373   8.104  0.4888 -0.6153 -0.0725
14429SOL    HW244482   6.393   6.401   8.242  1.8129 -1.1215  0.5989
14430SOL     OW44483   0.336   0.237   5.144  0.0745 -0.5256 -0.1402
14430SOL    HW144484   0.388   0.304   5.187  0.3051  0.0042 -1.2026
14430SOL    HW244485   0.248   0.248   5.181  0.7950 -1.8199  2.1009
14431SOL     OW44486   7.739   5.734   4.463  0.2118  0.4186  0.3357
14431SOL    HW144487   7.833   5.729   4.444  0.4579  0.6958  1.3807
14431SOL    HW244488   7.717   5.827   4.450  0.1285  0.3950  0.3055
14432SOL     OW44489   4.275   1.580   0.429 -0.2366  0.4517  0.5165
14432SOL    HW144490   4.225   1.626   0.497  0.7948  0.9333  0.9763
14432SOL    HW244491   4.263   1.487   0.450 -0.8692  0.5627  0.6646
14433SOL     OW44492   0.563   4.152   2.246  0.5476  0.2243 -0.3661
14433SOL    HW144493   0.520   4.165   2.161 -0.4384  1.4948  0.2776
14433SOL    HW244494   0.576   4.241   2.279  1.9699 -0.2162  0.3175
14434SOL     OW44495   4.082   8.368   6.617 -0.0495  0.3463  0.0479
14434SOL    HW144496   4.013   8.369   6.550 -0.3932 -0.1084  0.3882
14434SOL    HW244497   4.043   8.412   6.692  0.8058  2.0865 -0.4876
14435SOL     OW44498   3.783   5.257   1.021  0.0923 -0.0611  0.8976
14435SOL    HW144499   3.858   5.256   0.962  1.5711 -1.0170  2.6740
14435SOL    HW244500   3.764   5.349   1.035 -0.1388  0.1866 -0.8181
14436SOL     OW44501   8.004   2.617   6.986  0.4401 -0.1194 -0.0507
14436SOL    HW144502   8.097   2.637   6.974  0.7480 -1.6367 -0.4117
14436SOL    HW244503   7.960   2.665   6.917  1.1932 -0.9831 -1.1694
14437SOL     OW44504   5.379   8.193   6.431  0.1341  0.9026 -0.1564
14437SOL    HW144505   5.366   8.123   6.494  0.2926  0.1800 -0.8994
14437SOL    HW244506   5.305   8.186   6.371  0.7219  0.6430 -0.8814
14438SOL     OW44507   3.481   7.408   2.149  0.2875 -0.4962 -0.5707
14438SOL    HW144508   3.389   7.404   2.121 -0.5469 -0.2124  1.9208
14438SOL    HW244509   3.489   7.343   2.218  0.8224  2.1558  2.0846
14439SOL     OW44510   7.603   0.137   1.747  0.0788  0.2900  0.0063
14439SOL    HW144511   7.653   0.072   1.796 -1.5076 -0.5343  0.6046
14439SOL    HW244512   7.512   0.109   1.755 -0.5428  1.9333 -0.7333
14440SOL     OW44513   6.850   0.302   8.273 -0.2623 -0.3475  0.2829
14440SOL    HW144514   6.776   0.260   8.229 -0.3232  0.2862 -0.2479
14440SOL    HW244515   6.920   0.238   8.269 -0.9367 -1.1621  1.2605
14441SOL     OW44516   4.323   6.727   6.437  0.1661  0.5019 -0.0359
14441SOL    HW144517   4.229   6.727   6.455 -0.0671  3.7791 -0.7340
14441SOL    HW244518   4.335   6.654   6.375 -1.5908 -0.9498  1.2287
14442SOL     OW44519   0.138   3.733   8.036  0.2968 -0.4424  0.4087
14442SOL    HW144520   0.136   3.823   8.069 -0.3252 -0.1623 -0.3501
14442SOL    HW244521   0.149   3.679   8.114  0.7175  0.2886  0.8759
14443SOL     OW44522   7.674   7.942   3.090 -0.0416  0.3561 -0.2316
14443SOL    HW144523   7.692   7.957   2.997 -3.4344 -1.4495 -1.3499
14443SOL    HW244524   7.585   7.975   3.102 -0.2651 -0.9083  1.9653
14444SOL     OW44525   2.946   6.395   1.115 -0.3122  0.8514  0.1373
14444SOL    HW144526   2.980   6.456   1.180 -1.8238  0.8279  0.9781
14444SOL    HW244527   2.976   6.309   1.145  1.0036  1.0389 -0.5320
14445SOL     OW44528   1.310   5.712   2.120 -0.2125  0.3375 -0.0026
14445SOL    HW144529   1.318   5.619   2.096  1.0927  0.3169  0.3931
14445SOL    HW244530   1.357   5.759   2.051 -0.3795  0.6503  0.0954
14446SOL     OW44531   0.577   4.954   0.496 -0.1308  0.3298 -0.3930
14446SOL    HW144532   0.519   4.985   0.426  0.5655  0.2764 -1.0112
14446SOL    HW244533   0.553   4.862   0.508  1.4332 -0.4240 -2.3868
14447SOL     OW44534   5.882   0.622   4.149 -0.3338  0.2621  0.1701
14447SOL    HW144535   5.819   0.666   4.206 -1.7623 -1.0327 -0.3252
14447SOL    HW244536   5.831   0.553   4.106  2.0035 -2.8388  1.9400
14448SOL     OW44537   3.467   7.533   1.772  0.1616  0.4163  0.7004
14448SOL    HW144538   3.442   7.621   1.745 -0.6572 -0.0500 -0.0817
14448SOL    HW244539   3.563   7.536   1.779  0.0556  1.7403  2.0519
14449SOL     OW44540   2.654   4.222   8.393  0.3585  0.0044  0.2983
14449SOL    HW144541   2.589   4.203   8.462 -0.7318 -0.0055 -0.6966
14449SOL    HW244542   2.635   4.158   8.324  1.6702 -0.2128  0.1240
14450SOL     OW44543   8.280   0.292   8.088  0.3813 -0.0074  0.4121
14450SOL    HW144544   8.213   0.261   8.027 -0.2241  0.9514  0.5771
14450SOL    HW244545   8.352   0.320   8.031  0.4291 -0.5191  0.2112
14451SOL     OW44546   5.505   6.182   4.679 -0.0831 -0.0403  0.4261
14451SOL    HW144547   5.414   6.207   4.663  0.5680  1.1915 -1.7638
14451SOL    HW244548   5.536   6.148   4.595  1.6650  0.2421  0.9159
14452SOL     OW44549   8.327   3.771   4.977  0.3522  0.3887  0.3821
14452SOL    HW144550   8.373   3.854   4.960  3.6197 -0.9290  1.7947
14452SOL    HW244551   8.298   3.779   5.068  1.8473 -0.4063  0.9706
14453SOL     OW44552   3.553   1.397   0.273 -0.4069 -0.2311  0.5363
14453SOL    HW144553   3.529   1.440   0.356  0.7245 -1.4965  1.5642
14453SOL    HW244554   3.598   1.317   0.299  0.8917 -0.1728 -1.2973
14454SOL     OW44555   3.946   2.670   4.187 -0.4679 -0.4776 -0.8280
14454SOL    HW144556   3.879   2.736   4.167 -1.6370 -1.6299 -0.8526
14454SOL    HW244557   3.907   2.616   4.255  0.4949 -1.1064 -0.7551
14455SOL     OW44558   6.432   0.254   8.225  0.4069 -0.4885  0.0697
14455SOL    HW144559   6.379   0.196   8.279  0.2501 -0.0860  0.3568
14455SOL    HW244560   6.479   0.309   8.288  1.8568 -1.4190 -0.1378
14456SOL     OW44561   5.316   5.435   5.251 -0.0792 -0.0959  0.6492
14456SOL    HW144562   5.274   5.478   5.177  0.1685  0.5305  0.8641
14456SOL    HW244563   5.377   5.500   5.285  0.1824 -0.5601  1.0876
14457SOL     OW44564   2.632   6.935   1.257 -0.2405  0.9242  0.1813
14457SOL    HW144565   2.720   6.907   1.234 -0.1241  1.4106  0.0221
14457SOL    HW244566   2.580   6.918   1.178 -0.5270 -0.3588  0.6287
14458SOL     OW44567   7.135   8.580   2.307  0.6446 -0.1956 -0.2696
14458SOL    HW144568   7.101   8.501   2.349 -1.9495  1.5351  1.1268
14458SOL    HW244569   7.066   8.606   2.246  0.9545  1.5499  0.0720
14459SOL     OW44570   3.784   3.573   7.088  0.3072  0.0454  0.3632
14459SOL    HW144571   3.775   3.618   7.172 -0.1699 -1.0181  0.8969
14459SOL    HW244572   3.723   3.500   7.093 -0.2153  0.3411 -1.1801
14460SOL     OW44573   6.757   1.615   3.693  0.2221  0.4914  0.5869
14460SOL    HW144574   6.699   1.602   3.619  0.8158 -0.0617  0.2053
14460SOL    HW244575   6.754   1.709   3.710 -1.9977  0.2960  1.5993
14461SOL     OW44576   6.528   8.066   6.948 -0.2339  0.5503  0.1194
14461SOL    HW144577   6.512   8.147   6.899  1.6476  0.4824 -0.6694
14461SOL    HW244578   6.578   8.095   7.025  2.2487 -0.0271 -1.1853
14462SOL     OW44579   4.885   7.469   4.242 -0.8097  0.0505 -1.0177
14462SOL    HW144580   4.954   7.534   4.251  0.0629 -0.7527 -1.6740
14462SOL    HW244581   4.813   7.502   4.297  1.1264 -0.5291  2.0801
14463SOL     OW44582   1.806   3.039   4.354  0.6355  0.2845  0.3226
14463SOL    HW144583   1.819   3.097   4.279 -0.3900 -0.0519 -0.1332
14463SOL    HW244584   1.723   2.995   4.336  0.9136 -0.6001  1.1383
14464SOL     OW44585   8.263   0.362   7.337  0.4876 -0.3057 -0.5057
14464SOL    HW144586   8.264   0.394   7.428 -2.4666  2.1988 -1.1708
14464SOL    HW244587   8.328   0.416   7.292 -0.0170  0.4077 -0.3928
14465SOL     OW44588   0.870   6.959   1.531  0.3291  0.0571  0.3096
14465SOL    HW144589   0.805   6.888   1.526  1.2760 -0.7645 -1.0800
14465SOL    HW244590   0.821   7.034   1.566 -1.2905 -0.6318 -0.3779
14466SOL     OW44591   0.240   7.569   7.096  0.2640 -0.6102  0.1234
14466SOL    HW144592   0.194   7.570   7.012  0.3624  1.9720  0.0349
14466SOL    HW244593   0.199   7.497   7.144 -0.5701 -1.4284 -1.6981
14467SOL     OW44594   2.441   2.480   4.269  0.3267  0.0548  0.3374
14467SOL    HW144595   2.435   2.431   4.351  1.8052 -0.5069  0.1293
14467SOL    HW244596   2.532   2.472   4.241 -0.0696  0.4686 -1.2263
14468SOL     OW44597   7.932   8.109   5.313 -0.0283  0.0530 -0.3187
14468SOL    HW144598   7.962   8.188   5.358  1.4510 -1.0610  0.7677
14468SOL    HW244599   7.837   8.120   5.306  0.0683  1.6236  0.3914
14469SOL     OW44600   2.477   7.848   5.697  0.1800  0.2860  0.2801
14469SOL    HW144601   2.487   7.881   5.608 -0.8096  0.0628  0.0743
14469SOL    HW244602   2.385   7.825   5.703  0.5949 -1.3938  0.7642
14470SOL     OW44603   1.391   5.092   1.515  0.5258 -0.2082 -0.3725
14470SOL    HW144604   1.342   5.051   1.444 -1.0084 -0.5946  0.8460
14470SOL    HW244605   1.469   5.038   1.525 -0.0694 -1.1474 -0.6710
14471SOL     OW44606   0.329   5.093   3.695  0.6195 -0.0960 -0.1705
14471SOL    HW144607   0.359   5.086   3.605  1.0466 -0.7926  0.0192
14471SOL    HW244608   0.390   5.039   3.746  1.5497  1.7970  0.8273
14472SOL     OW44609   3.897   0.843   2.873 -0.0650  0.3773  0.1676
14472SOL    HW144610   3.980   0.890   2.866 -1.1741  2.2534 -1.5952
14472SOL    HW244611   3.867   0.861   2.962  0.3794  1.5579  0.0993
14473SOL     OW44612   2.149   1.510   0.115 -0.0589 -0.1126  0.6562
14473SOL    HW144613   2.241   1.515   0.140 -0.0263  0.2745  0.4632
14473SOL    HW244614   2.130   1.595   0.076 -0.4882 -0.2054  0.6570
14474SOL     OW44615   2.859   8.520   3.221  0.1060 -0.0814 -0.5096
14474SOL    HW144616   2.841   8.454   3.288 -0.8987  1.3482  0.7185
14474SOL    HW244617   2.931   8.572   3.258 -0.3043  0.5799 -0.6299
14475SOL     OW44618   0.168   0.289   3.793 -0.4731  0.4681 -0.5987
14475SOL    HW144619   0.257   0.285   3.829 -0.9735 -2.6318  0.6562
14475SOL    HW244620   0.176   0.253   3.705 -0.5949 -1.0367 -0.0294
14476SOL     OW44621   2.744   1.832   7.558  0.0930  0.2199 -0.0532
14476SOL    HW144622   2.824   1.867   7.519 -0.4541  1.1058 -0.4028
14476SOL    HW244623   2.769   1.745   7.589  0.9878  0.1796 -0.8427
14477SOL     OW44624   3.396   0.955   1.432  0.4492  0.8315  0.2115
14477SOL    HW144625   3.323   0.977   1.489 -0.9515  0.7930 -1.4776
14477SOL    HW244626   3.449   1.034   1.428 -0.3559  1.3803  0.2350
14478SOL     OW44627   2.146   4.919   4.996  0.8784 -0.2591 -0.1303
14478SOL    HW144628   2.115   4.910   4.906 -0.7210  0.4927  0.3235
14478SOL    HW244629   2.196   4.839   5.012  2.2398  0.1313 -2.0604
14479SOL     OW44630   6.785   3.252   7.518  0.4605 -0.6396 -0.0904
14479SOL    HW144631   6.852   3.264   7.450  1.3034 -0.8083  0.6878
14479SOL    HW244632   6.813   3.173   7.565 -0.6118 -1.0497 -0.1130
14480SOL     OW44633   8.558   3.502   7.946 -0.3554  0.0530  0.0310
14480SOL    HW144634   8.638   3.473   7.903 -0.4523  0.2409 -0.2804
14480SOL    HW244635   8.573   3.594   7.966 -0.3658  0.0036  0.2709
14481SOL     OW44636   7.808   8.301   7.842  0.3585 -0.7713  0.0083
14481SOL    HW144637   7.870   8.307   7.915 -0.3603  0.2345  0.5579
14481SOL    HW244638   7.798   8.207   7.827  2.0741 -0.9643 -0.1585
14482SOL     OW44639   7.783   3.966   8.528 -0.2660 -0.0182  0.3920
14482SOL    HW144640   7.867   3.965   8.483 -0.2760  0.5570  0.3476
14482SOL    HW244641   7.721   3.930   8.465 -0.6382  2.5405 -0.8283
14483SOL     OW44642   8.349   2.158   6.678 -0.2166  0.3984  0.0759
14483SOL    HW144643   8.392   2.242   6.662 -1.5269  1.0570 -0.1265
14483SOL    HW244644   8.263   2.182   6.714 -1.6784 -0.7190 -2.4118
14484SOL     OW44645   3.698   0.114   4.449  0.4111 -0.8246  0.2772
14484SOL    HW144646   3.662   0.091   4.534  0.4554  0.1811  0.5880
14484SOL    HW244647   3.633   0.081   4.386 -2.1343  2.4795  0.8608
14485SOL     OW44648   1.776   1.711   4.287 -0.5938  0.4707 -0.3390
14485SOL    HW144649   1.823   1.723   4.205  0.0787 -0.1002 -0.0525
14485SOL    HW244650   1.715   1.784   4.292  0.3404  1.2863 -0.6829
14486SOL     OW44651   8.585   5.914   2.082 -0.0593  0.1170 -0.2100
14486SOL    HW144652   8.646   5.904   2.008 -1.0828 -0.6618 -0.9761
14486SOL    HW244653   8.630   5.975   2.141  0.1565  1.9635 -2.1426
14487SOL     OW44654   0.095   1.749   7.621  0.5388  0.5730 -0.1991
14487SOL    HW144655   0.067   1.664   7.655 -1.7191  1.4132  0.2271
14487SOL    HW244656   0.171   1.729   7.567  2.8774 -1.1437  3.3685
14488SOL     OW44657   4.245   0.730   8.393  0.0135  0.1239 -0.4962
14488SOL    HW144658   4.271   0.717   8.484  0.0122  1.6543 -0.2504
14488SOL    HW244659   4.308   0.678   8.342 -0.0569 -0.8324  0.3565
14489SOL     OW44660   1.704   7.584   7.311 -0.2986 -0.4408  0.5287
14489SOL    HW144661   1.687   7.512   7.250 -2.0199 -1.2849  1.9331
14489SOL    HW244662   1.729   7.657   7.254 -0.0716 -1.6791 -1.0520
14490SOL     OW44663   7.796   8.016   7.912  0.1244 -0.4294  0.4224
14490SOL    HW144664   7.871   7.957   7.922 -0.1970 -0.5568  2.5016
14490SOL    HW244665   7.763   7.999   7.823  1.0697 -2.1300  0.3613
14491SOL     OW44666   2.442   4.360   0.770  0.0666 -0.5236  0.0509
14491SOL    HW144667   2.526   4.323   0.796  0.0540  0.5991  1.8045
14491SOL    HW244668   2.384   4.343   0.843 -0.3026  1.6742  0.3409
14492SOL     OW44669   7.728   6.714   5.836 -0.3359 -0.2762  0.4914
14492SOL    HW144670   7.699   6.625   5.858 -2.0049 -0.2918 -1.5081
14492SOL    HW244671   7.665   6.745   5.772  1.8703  1.2916 -1.0708
14493SOL     OW44672   4.133   7.939   1.724 -0.2824 -0.0556  0.3572
14493SOL    HW144673   4.132   7.857   1.674  1.7195 -1.4113  2.3354
14493SOL    HW244674   4.209   7.987   1.690 -1.8062  1.3743 -1.2309
14494SOL     OW44675   7.580   3.775   7.652  0.1299 -0.1693  0.2326
14494SOL    HW144676   7.572   3.698   7.596  2.7219 -0.4909  0.1930
14494SOL    HW244677   7.556   3.744   7.739  1.9493 -1.3277  0.3847
14495SOL     OW44678   5.272   8.173   1.494 -0.4623  0.3747 -0.7977
14495SOL    HW144679   5.320   8.119   1.431  1.0641 -0.7783  1.2348
14495SOL    HW244680   5.325   8.252   1.504 -0.6402  0.5039 -0.8582
14496SOL     OW44681   2.578   0.008   2.167  0.0543 -0.0890  0.8268
14496SOL    HW144682   2.551  -0.068   2.116  0.8185  0.7554 -0.9222
14496SOL    HW244683   2.515   0.011   2.239 -0.5922 -1.7968  0.3976
14497SOL     OW44684   1.450   5.328   6.270 -0.0181 -0.3417  0.0294
14497SOL    HW144685   1.365   5.285   6.269  0.0166 -0.5141 -2.4144
14497SOL    HW244686   1.493   5.295   6.349 -2.7389  0.9599  2.2211
14498SOL     OW44687   4.497   4.726   3.826 -0.2157 -0.0552 -0.5778
14498SOL    HW144688   4.469   4.742   3.916 -1.0280 -2.2123 -0.4059
14498SOL    HW244689   4.438   4.779   3.772 -0.7253  0.0533  0.0855
14499SOL     OW44690   7.652   1.548   3.862  0.7457 -0.0090 -0.3588
14499SOL    HW144691   7.595   1.542   3.785  2.3048  0.1879 -1.5906
14499SOL    HW244692   7.736   1.578   3.827  2.3698 -2.6450  0.9975
14500SOL     OW44693   2.317   6.430   3.890  0.3431  0.5889  0.0392
14500SOL    HW144694   2.290   6.340   3.874  0.9867  0.1665  1.1984
14500SOL    HW244695   2.411   6.430   3.874  0.2283  1.2369 -0.6848
14501SOL     OW44696   1.660   7.924   5.670  0.1921  0.6148 -0.0925
14501SOL    HW144697   1.623   7.998   5.623 -0.9753  1.2109  1.6542
14501SOL    HW244698   1.754   7.927   5.651 -0.0939  1.4410 -1.4884
14502SOL     OW44699   1.174   7.642   1.879 -0.0100 -0.4252  0.1407
14502SOL    HW144700   1.176   7.736   1.861  1.0735 -0.5032 -0.2225
14502SOL    HW244701   1.230   7.604   1.812 -2.4751 -1.6506 -1.4047
14503SOL     OW44702   3.561   3.924   4.931 -0.3438  0.1650 -0.1767
14503SOL    HW144703   3.622   3.958   4.866  1.1210 -1.6479  0.1547
14503SOL    HW244704   3.603   3.844   4.963 -2.0488 -0.1492  1.4262
14504SOL     OW44705   0.051   7.699   1.462 -0.1358  0.1777 -0.0962
14504SOL    HW144706  -0.024   7.677   1.407 -0.0124  1.2140 -0.7007
14504SOL    HW244707   0.127   7.679   1.408  0.0262 -0.4032  0.3359
14505SOL     OW44708   6.413   0.467   8.047  0.1763 -0.0448 -1.0536
14505SOL    HW144709   6.430   0.378   8.078 -0.0161  0.3380  0.1793
14505SOL    HW244710   6.483   0.484   7.983  0.4783 -0.9047 -0.9650
14506SOL     OW44711   7.636   7.018   1.039 -0.5149 -0.5813  0.0944
14506SOL    HW144712   7.689   7.083   0.993 -2.8799  0.9568 -0.6342
14506SOL    HW244713   7.652   7.035   1.132  0.9125 -0.7682 -0.0938
14507SOL     OW44714   6.398   4.267   6.780  0.0546  0.1095 -0.1656
14507SOL    HW144715   6.491   4.288   6.788  0.2377  0.2118 -2.2209
14507SOL    HW244716   6.352   4.347   6.807  0.5054 -0.0822  1.2858
14508SOL     OW44717   8.492   8.130   2.510  0.1263 -0.1439  0.0064
14508SOL    HW144718   8.511   8.200   2.448  2.5243 -0.2395  0.5056
14508SOL    HW244719   8.399   8.111   2.498  0.1298  0.9843 -2.3087
14509SOL     OW44720   1.394   1.343   3.787 -0.1164  0.2250 -0.7230
14509SOL    HW144721   1.328   1.397   3.831  0.9620  1.6976 -0.8754
14509SOL    HW244722   1.363   1.253   3.800 -2.3908  0.8771 -1.1616
14510SOL     OW44723   1.668   1.882   4.080  0.8546  0.0063  0.5662
14510SOL    HW144724   1.683   1.940   4.006  1.1011 -0.1944  0.4615
14510SOL    HW244725   1.580   1.905   4.111  1.5704  1.6083  1.5566
14511SOL     OW44726   0.545   5.258   5.781  0.4259 -0.2086  0.2542
14511SOL    HW144727   0.505   5.190   5.835 -2.2731 -0.4360 -1.8231
14511SOL    HW244728   0.570   5.214   5.700  0.4670  0.8950 -0.3579
14512SOL     OW44729   1.335   7.188   6.323 -0.0974 -0.3332 -1.1632
14512SOL    HW144730   1.280   7.196   6.246 -0.6075 -0.5150 -0.8190
14512SOL    HW244731   1.341   7.094   6.339 -1.9192 -0.2459  0.3747
14513SOL     OW44732   2.995   3.178   6.115 -0.0952  0.1285 -0.4692
14513SOL    HW144733   3.013   3.180   6.021  1.1723 -0.1511 -0.2517
14513SOL    HW244734   2.936   3.252   6.130 -0.4374  0.0710 -1.5120
14514SOL     OW44735   0.828   5.459   7.478 -0.7586  0.2288  0.4416
14514SOL    HW144736   0.819   5.367   7.452  0.5875  0.1552  0.1752
14514SOL    HW244737   0.778   5.507   7.412  2.1311  0.0064 -2.1490
14515SOL     OW44738   3.929   6.297   7.461  0.1456  0.2555  0.3682
14515SOL    HW144739   3.882   6.355   7.400 -2.0949 -0.3479  1.3910
14515SOL    HW244740   3.874   6.219   7.466  0.8164 -0.1345  2.3370
14516SOL     OW44741   1.536   5.672   8.420  0.5482  0.3934 -0.4643
14516SOL    HW144742   1.555   5.766   8.416 -1.4727  0.9873  1.7875
14516SOL    HW244743   1.610   5.635   8.469 -0.4743  1.5392  2.1359
14517SOL     OW44744   4.889   3.292   6.726 -0.4348  0.2134 -0.4933
14517SOL    HW144745   4.869   3.200   6.710 -0.1300  0.0242  0.2033
14517SOL    HW244746   4.944   3.317   6.652  1.1375 -0.7148  0.3051
14518SOL     OW44747   2.641   6.458   5.201  0.2167  0.1624 -0.7199
14518SOL    HW144748   2.705   6.524   5.173  0.6967 -0.2125 -0.5297
14518SOL    HW244749   2.643   6.392   5.132 -2.4058  1.6915 -2.4393
14519SOL     OW44750   5.760   2.378   2.544  0.5868  0.0656  0.0256
14519SOL    HW144751   5.715   2.317   2.604  0.4215  0.7372  0.6038
14519SOL    HW244752   5.843   2.397   2.587  0.9582 -0.3170 -0.5119
14520SOL     OW44753   7.413   7.771   1.229  0.1191 -0.1253  0.3999
14520SOL    HW144754   7.323   7.738   1.231 -0.8269  2.1601 -1.1428
14520SOL    HW244755   7.447   7.742   1.145  0.2885  0.3670  0.3022
14521SOL     OW44756   2.332   5.420   0.010  0.1562 -0.3857 -0.1863
14521SOL    HW144757   2.248   5.465  -0.001 -1.0199 -2.4556 -0.3491
14521SOL    HW244758   2.382   5.475   0.069 -1.4895  0.7181  0.2355
14522SOL     OW44759   1.287   5.490   4.854 -0.2952 -0.0639 -0.4309
14522SOL    HW144760   1.260   5.582   4.850 -0.5959 -0.2116 -2.5283
14522SOL    HW244761   1.373   5.488   4.812 -1.7630 -1.1976 -3.6508
14523SOL     OW44762   4.333   0.614   7.330  0.3079  0.2338  0.4287
14523SOL    HW144763   4.412   0.594   7.279  0.7342  0.1419  1.1121
14523SOL    HW244764   4.359   0.600   7.421 -0.6567 -0.3125  0.6297
14524SOL     OW44765   0.170   0.948   1.609  0.3569 -0.2819  0.2396
14524SOL    HW144766   0.153   1.034   1.572  0.2667 -0.1159  0.6684
14524SOL    HW244767   0.102   0.935   1.674 -0.4504 -1.2486 -0.7556
14525SOL     OW44768   7.809   5.481   1.226  0.2508  0.5575  0.3823
14525SOL    HW144769   7.723   5.493   1.266  0.6804  1.8092  0.9880
14525SOL    HW244770   7.847   5.406   1.272 -1.0258 -0.8895 -0.8375
14526SOL     OW44771   0.096   4.761   3.845  0.6616  0.0284  0.1594
14526SOL    HW144772   0.109   4.671   3.817  0.6247 -0.0217  0.3051
14526SOL    HW244773   0.044   4.755   3.925 -2.8612  0.3075 -1.9015
14527SOL     OW44774   3.995   4.154   6.088  0.0094 -0.8245 -0.0234
14527SOL    HW144775   3.963   4.120   6.171 -0.4738 -0.3689 -0.0177
14527SOL    HW244776   3.999   4.249   6.101 -2.0305 -0.5250 -1.1618
14528SOL     OW44777   4.014   5.578   0.649  0.0387  0.0111 -0.1491
14528SOL    HW144778   3.979   5.501   0.695 -2.1766  1.3786  0.6383
14528SOL    HW244779   3.970   5.577   0.564  1.2786 -0.4612 -0.8088
14529SOL     OW44780   5.675   4.764   5.630  0.1299  0.1258 -0.5851
14529SOL    HW144781   5.766   4.750   5.603 -0.0918 -1.5332 -0.5885
14529SOL    HW244782   5.682   4.796   5.720  0.7359  1.3344 -1.0416
14530SOL     OW44783   2.034   3.347   7.408  0.3903  0.2616 -0.0423
14530SOL    HW144784   1.953   3.299   7.394 -0.3819  1.5888 -0.2646
14530SOL    HW244785   2.103   3.286   7.380 -0.6956  0.3780 -3.3150
14531SOL     OW44786   3.622   3.058   4.924  0.2403 -0.5981 -0.3555
14531SOL    HW144787   3.547   3.066   4.865 -1.4617  1.1582  1.8660
14531SOL    HW244788   3.673   3.138   4.908  0.0426 -0.3618  0.1626
14532SOL     OW44789   7.174   7.169   4.030 -0.4879  0.7882  0.2183
14532SOL    HW144790   7.244   7.228   4.059 -0.0914  0.8412 -0.7885
14532SOL    HW244791   7.123   7.222   3.968  0.1477 -0.0514 -1.0540
14533SOL     OW44792   7.853   2.380   7.801 -0.5566  0.3496 -0.4496
14533SOL    HW144793   7.881   2.298   7.761  0.0510  0.4623 -0.2724
14533SOL    HW244794   7.908   2.389   7.878  0.5165  1.6993 -1.3179
14534SOL     OW44795   1.427   0.129   5.942 -0.4937  0.1042 -0.3918
14534SOL    HW144796   1.384   0.139   6.027  1.2629 -0.4364  0.6082
14534SOL    HW244797   1.443   0.035   5.934  0.1427  0.2524 -0.9103
14535SOL     OW44798   3.326   0.129   1.217  0.7437 -0.3865  0.5620
14535SOL    HW144799   3.410   0.122   1.262  1.5734 -1.4176 -1.0528
14535SOL    HW244800   3.349   0.155   1.127 -0.7390  0.2650  0.3394
14536SOL     OW44801   5.158   3.512   1.094  0.3913 -0.2687 -0.8549
14536SOL    HW144802   5.110   3.430   1.082 -0.6440  0.0851  0.6265
14536SOL    HW244803   5.091   3.575   1.122  1.7808 -0.0209  2.3563
14537SOL     OW44804   7.557   3.310   0.193 -0.0348 -0.3865  0.0195
14537SOL    HW144805   7.613   3.233   0.199  0.1038 -0.2254  1.2704
14537SOL    HW244806   7.601   3.367   0.130  0.3001 -0.9851 -0.2939
14538SOL     OW44807   4.750   3.200   0.627 -0.3851 -0.0678 -0.4867
14538SOL    HW144808   4.667   3.245   0.641 -0.6906 -0.8879  0.4332
14538SOL    HW244809   4.810   3.242   0.689  0.3709  1.6674 -2.2915
14539SOL     OW44810   5.840   4.783   4.823  0.1961  0.2349  0.2456
14539SOL    HW144811   5.857   4.691   4.843 -1.4773 -0.2538 -0.4564
14539SOL    HW244812   5.779   4.782   4.750 -0.8356  1.8802  1.0025
14540SOL     OW44813   0.557   7.633   0.096  0.2553  0.1117 -0.3949
14540SOL    HW144814   0.521   7.638   0.008 -0.2124 -0.4811 -0.2484
14540SOL    HW244815   0.579   7.724   0.119  0.0779  0.3072 -0.9936
14541SOL     OW44816   7.885   6.045   7.373  0.4408 -0.3685 -0.1930
14541SOL    HW144817   7.890   5.950   7.383 -0.5664 -0.4669 -0.5064
14541SOL    HW244818   7.968   6.069   7.331  0.3189 -1.2258 -0.9528
14542SOL     OW44819   3.651   5.336   0.261  0.2932 -0.0067 -0.1475
14542SOL    HW144820   3.615   5.305   0.344 -1.5756 -1.7733 -1.5166
14542SOL    HW244821   3.586   5.398   0.229  1.5921  1.6042  0.1985
14543SOL     OW44822   4.369   6.730   6.065  0.5137  0.6439  0.3160
14543SOL    HW144823   4.286   6.774   6.048 -0.6866 -1.1556  1.2224
14543SOL    HW244824   4.405   6.714   5.978 -0.7648  0.2162 -0.1635
14544SOL     OW44825   7.973   6.767   5.972  0.1361 -0.0839  0.0848
14544SOL    HW144826   7.986   6.857   5.943 -0.8776  0.6579  1.8288
14544SOL    HW244827   7.895   6.738   5.924  1.8974 -0.9906 -2.4442
14545SOL     OW44828   6.008   5.505   3.255  0.0577 -0.5885  0.4279
14545SOL    HW144829   6.031   5.426   3.206  0.0963 -0.3480  0.0558
14545SOL    HW244830   6.047   5.577   3.205 -0.1509 -0.3146  0.6539
14546SOL     OW44831   8.077   0.384   4.196 -0.1149  0.1909 -0.3554
14546SOL    HW144832   8.136   0.412   4.125 -1.7969  1.4249 -1.3743
14546SOL    HW244833   8.126   0.402   4.276  1.0316  0.8137 -1.1514
14547SOL     OW44834   1.323   6.596   7.464 -0.2878 -0.0943  0.1119
14547SOL    HW144835   1.259   6.588   7.393 -1.7730 -1.3192  1.5110
14547SOL    HW244836   1.272   6.624   7.540  1.6119  3.5240  0.2811
14548SOL     OW44837   7.974   4.708   2.516 -0.8005  0.5557  0.0666
14548SOL    HW144838   7.955   4.722   2.609 -4.3040 -0.4802 -0.3733
14548SOL    HW244839   8.043   4.641   2.516 -1.5872 -0.3332  1.9470
14549SOL     OW44840   4.253   1.526   4.232  0.0570 -0.3144 -0.1184
14549SOL    HW144841   4.318   1.492   4.294 -1.9783 -0.5281  2.0345
14549SOL    HW244842   4.205   1.593   4.281 -0.4381  0.8509 -2.1013
14550SOL     OW44843   5.290   1.658   8.237 -0.4538  0.3665  0.3223
14550SOL    HW144844   5.299   1.745   8.278 -0.0974 -0.4533  2.0859
14550SOL    HW244845   5.217   1.618   8.284  1.1059 -1.2790  1.4381
14551SOL     OW44846   4.550   8.273   5.082  0.1089  0.2651 -0.7644
14551SOL    HW144847   4.505   8.344   5.127 -1.2701 -1.3204  0.4874
14551SOL    HW244848   4.497   8.256   5.004  0.6534  0.8376 -1.2690
14552SOL     OW44849   6.560   1.805   4.168  0.4475  0.0583  0.0117
14552SOL    HW144850   6.491   1.787   4.231  1.0847 -1.3180  0.3539
14552SOL    HW244851   6.517   1.799   4.083 -0.2802  1.3089  0.2602
14553SOL     OW44852   7.485   6.345   6.350 -0.1000  0.2308  0.1179
14553SOL    HW144853   7.459   6.263   6.307 -0.9044  0.1639  0.6884
14553SOL    HW244854   7.479   6.324   6.444  1.1740  0.5007  0.2807
14554SOL     OW44855   4.033   6.999   1.167 -0.1123  0.4638 -0.1905
14554SOL    HW144856   3.990   6.918   1.141  1.2700 -0.4724  0.2786
14554SOL    HW244857   3.963   7.053   1.204 -0.8749 -1.0484  0.7119
14555SOL     OW44858   7.367   3.483   0.849 -0.7458  0.2362  0.5300
14555SOL    HW144859   7.348   3.533   0.928 -0.2066 -1.1714  1.5994
14555SOL    HW244860   7.299   3.416   0.847  0.6199 -1.2398  1.1894
14556SOL     OW44861   1.323   7.695   7.911  0.4016 -0.0476 -0.4361
14556SOL    HW144862   1.250   7.658   7.862 -1.1161  1.1404  0.7976
14556SOL    HW244863   1.400   7.681   7.856 -1.0375  0.3446 -2.6711
14557SOL     OW44864   2.810   0.361   0.290  0.0852 -0.6618 -0.6081
14557SOL    HW144865   2.728   0.341   0.336  0.6348  1.6073  1.5917
14557SOL    HW244866   2.782   0.412   0.214 -0.5918  1.6521  1.0613
14558SOL     OW44867   1.008   7.279   3.431  0.0867 -0.0632  0.0256
14558SOL    HW144868   0.936   7.336   3.404 -0.5397 -1.4132 -1.3381
14558SOL    HW244869   0.997   7.270   3.526 -1.7470 -0.4607 -0.1853
14559SOL     OW44870   8.202   7.142   0.452 -0.3287  0.2715 -0.3554
14559SOL    HW144871   8.162   7.226   0.429  0.1917  0.5331 -0.2976
14559SOL    HW244872   8.293   7.149   0.423  0.2674  0.4806  1.4597
14560SOL     OW44873   4.590   3.577   3.165  0.7840  0.0281 -0.0723
14560SOL    HW144874   4.576   3.667   3.134 -0.0588 -0.8364 -2.3951
14560SOL    HW244875   4.582   3.583   3.260 -1.3763  2.0563 -0.3034
14561SOL     OW44876   5.143   2.095   1.741  0.0502 -0.7041 -0.1766
14561SOL    HW144877   5.134   2.087   1.836 -0.4417  0.5569 -0.0920
14561SOL    HW244878   5.065   2.144   1.714  0.5016 -0.5013 -1.1426
14562SOL     OW44879   1.420   0.728   7.549 -0.1945  0.0200 -0.3662
14562SOL    HW144880   1.504   0.689   7.573 -0.1584 -0.4535 -1.2300
14562SOL    HW244881   1.360   0.653   7.544 -0.7921  0.3954  0.6801
14563SOL     OW44882   2.418   1.804   7.091 -0.0651  0.4877  0.1804
14563SOL    HW144883   2.361   1.733   7.123  0.9980  0.0765  1.2603
14563SOL    HW244884   2.496   1.759   7.060  0.4374  1.1567  0.4584
14564SOL     OW44885   1.002   4.109   1.251  0.3788  0.0864  0.3334
14564SOL    HW144886   1.005   4.192   1.298  1.6674  0.0090  0.4339
14564SOL    HW244887   1.093   4.079   1.250 -0.2039 -1.8605  1.2579
14565SOL     OW44888   3.957   5.010   7.834 -0.2790 -1.1331 -0.0637
14565SOL    HW144889   3.876   4.964   7.811 -1.1981 -0.6325  1.9569
14565SOL    HW244890   3.929   5.098   7.859  0.7348 -1.2357  1.5787
14566SOL     OW44891   8.185   5.776   8.070 -0.5085  0.4299  0.2686
14566SOL    HW144892   8.247   5.704   8.056 -1.1253 -0.1648  0.5408
14566SOL    HW244893   8.240   5.851   8.093  0.0789 -0.2481  1.1570
14567SOL     OW44894   8.071   3.987   5.062 -0.5537  0.3015 -0.0030
14567SOL    HW144895   8.085   3.998   4.968 -2.5182  0.7135 -0.2803
14567SOL    HW244896   8.055   3.893   5.074  1.5591 -0.0810  0.2402
14568SOL     OW44897   7.778   0.098   6.022 -0.2296 -0.3947  0.4602
14568SOL    HW144898   7.740   0.122   6.106 -2.8747 -0.3412 -0.6332
14568SOL    HW244899   7.861   0.055   6.043 -0.6812 -0.1256  3.0400
14569SOL     OW44900   8.437   8.543   4.059  0.3611  0.4669  0.5303
14569SOL    HW144901   8.516   8.564   4.109 -0.1867  1.3542  1.0498
14569SOL    HW244902   8.377   8.507   4.124 -0.4609  1.8956  0.6013
14570SOL     OW44903   8.508   7.530   2.297 -0.2936  0.3141  0.3741
14570SOL    HW144904   8.445   7.493   2.360  0.4987 -0.7733  0.5588
14570SOL    HW244905   8.504   7.624   2.311 -1.0871  0.1776  1.1412
14571SOL     OW44906   7.756   7.914   4.226  0.0992 -0.0296 -0.3541
14571SOL    HW144907   7.665   7.893   4.249  0.3668 -0.7371  0.1137
14571SOL    HW244908   7.794   7.947   4.308  0.4017 -0.2418 -0.4053
14572SOL     OW44909   2.158   0.367   3.744  0.1209  0.3354 -0.0407
14572SOL    HW144910   2.128   0.449   3.783 -0.7479  1.4958 -2.8550
14572SOL    HW244911   2.080   0.330   3.701  0.3522 -2.3220  1.5939
14573SOL     OW44912   7.620   3.118   0.536 -0.0261 -0.4615 -0.3085
14573SOL    HW144913   7.568   3.198   0.526 -0.0909 -0.4416  0.1732
14573SOL    HW244914   7.708   3.149   0.557  0.2313 -0.4906 -1.3154
14574SOL     OW44915   1.129   2.620   3.844  0.0265 -0.2517  0.5325
14574SOL    HW144916   1.220   2.590   3.848 -0.1909 -1.0687 -0.2819
14574SOL    HW244917   1.082   2.547   3.803 -0.7989  0.5871 -0.0415
14575SOL     OW44918   1.156   6.056   2.182  0.1349 -0.4817 -0.3234
14575SOL    HW144919   1.076   6.079   2.229 -0.0722 -1.4595 -0.1828
14575SOL    HW244920   1.215   6.130   2.198 -0.9066  0.4990 -0.8744
14576SOL     OW44921   2.384   3.186   6.672 -0.3074  0.0625 -0.0569
14576SOL    HW144922   2.326   3.155   6.742 -0.4460 -2.7314 -1.3014
14576SOL    HW244923   2.450   3.118   6.663  1.4140  1.7204 -0.7873
14577SOL     OW44924   4.247   2.219   0.926  1.2282 -0.2979  0.0061
14577SOL    HW144925   4.241   2.251   1.016  1.7580 -0.4796  0.1084
14577SOL    HW244926   4.315   2.273   0.886  1.5423 -0.7332 -0.0594
14578SOL     OW44927   3.500   7.779   0.864 -0.6400  0.3913 -0.3370
14578SOL    HW144928   3.505   7.712   0.796 -1.2760  0.7105 -0.7071
14578SOL    HW244929   3.590   7.788   0.896 -0.6538 -1.1347  0.2044
14579SOL     OW44930   2.480   5.204   6.135  0.1491 -0.3708  0.4927
14579SOL    HW144931   2.480   5.298   6.151 -2.5973 -0.7077  3.3036
14579SOL    HW244932   2.561   5.173   6.175 -0.2371  0.5157  2.0247
14580SOL     OW44933   2.006   1.515   6.037 -0.0117 -0.1934  0.2685
14580SOL    HW144934   1.968   1.465   5.964  2.0443  1.4465 -2.0958
14580SOL    HW244935   1.956   1.596   6.040 -0.2745 -0.3715  0.9149
14581SOL     OW44936   4.733   6.596   3.199 -0.3400  0.0459  0.7395
14581SOL    HW144937   4.760   6.629   3.113  1.4499 -0.5892  1.0036
14581SOL    HW244938   4.654   6.546   3.181  0.4063 -0.6938 -0.7034
14582SOL     OW44939   0.835   5.497   7.761  0.2147  0.4262 -0.1051
14582SOL    HW144940   0.919   5.534   7.787 -0.3539  1.7956 -0.1110
14582SOL    HW244941   0.848   5.468   7.671  0.1818  2.4047 -0.7877
14583SOL     OW44942   1.826   1.944   4.653 -0.1961  0.2343  0.3592
14583SOL    HW144943   1.776   2.019   4.621  1.4360  0.8812 -0.8076
14583SOL    HW244944   1.875   1.913   4.577  1.6380  0.0184  1.5715
14584SOL     OW44945   4.620   4.661   5.231  0.0661  0.7295  0.1569
14584SOL    HW144946   4.631   4.752   5.259 -1.2485  0.9270  0.0894
14584SOL    HW244947   4.539   4.633   5.274  0.7535 -0.5926  0.6254
14585SOL     OW44948   2.174   4.230   5.942  0.0706  0.2171 -0.3757
14585SOL    HW144949   2.262   4.202   5.967  0.7629  1.9463 -0.7504
14585SOL    HW244950   2.172   4.221   5.847  0.2206  1.1957 -0.4746
14586SOL     OW44951   0.097   3.440   6.915  0.7557  0.1839  0.4679
14586SOL    HW144952   0.118   3.522   6.960 -1.2174  1.6578 -1.0741
14586SOL    HW244953   0.159   3.437   6.841  1.0373  0.1150  0.7055
14587SOL     OW44954   1.586   6.496   4.900 -0.2950  0.0562  0.7226
14587SOL    HW144955   1.635   6.433   4.847  0.7006  1.3471  0.0645
14587SOL    HW244956   1.582   6.575   4.846 -1.8672  0.4489  1.3703
14588SOL     OW44957   0.084   6.154   0.064  0.0313  0.5397  0.0604
14588SOL    HW144958   0.168   6.170   0.107  0.5575 -2.2990  0.2454
14588SOL    HW244959   0.093   6.198  -0.021  2.0688 -0.3428 -0.2605
14589SOL     OW44960   1.255   3.612   0.071 -0.0844  0.2395 -0.1018
14589SOL    HW144961   1.211   3.661   0.001  0.8780  1.0029 -0.2016
14589SOL    HW244962   1.220   3.651   0.152 -0.8211 -0.2996 -0.1515
14590SOL     OW44963   5.552   7.590   2.334  0.0784  0.3687  0.3321
14590SOL    HW144964   5.580   7.527   2.268  0.8965  1.3640 -0.2958
14590SOL    HW244965   5.483   7.545   2.383  0.1007 -0.7105 -0.6067
14591SOL     OW44966   2.085   4.282   6.740  0.9735 -0.3832 -0.1817
14591SOL    HW144967   2.052   4.371   6.753  1.4606 -0.2099 -0.0853
14591SOL    HW244968   2.180   4.293   6.735  1.0096 -0.8474 -0.5944
14592SOL     OW44969   2.919   5.019   4.489  0.5806  0.4949 -0.4540
14592SOL    HW144970   2.871   5.085   4.539  1.0965  0.3868  0.1902
14592SOL    HW244971   2.897   5.038   4.398  1.2397  1.9602 -0.3347
14593SOL     OW44972   3.398   3.328   6.572  0.0912  0.3620 -0.1377
14593SOL    HW144973   3.328   3.338   6.636 -1.7822 -0.1547 -1.9832
14593SOL    HW244974   3.390   3.405   6.515  2.4050  1.3694  0.7826
14594SOL     OW44975   6.965   5.661   0.436  0.3741  0.3022  0.4135
14594SOL    HW144976   6.992   5.594   0.499  0.4873  0.1626  0.2183
14594SOL    HW244977   7.041   5.717   0.426  1.0002 -0.7010 -0.9407
14595SOL     OW44978   4.450   6.721   4.501 -0.4809  0.3100  0.3350
14595SOL    HW144979   4.534   6.694   4.537 -1.0917  0.2031  1.7195
14595SOL    HW244980   4.468   6.808   4.463  0.2688  0.2570  0.5490
14596SOL     OW44981   5.035   5.526   3.893  0.0835  0.5575 -0.3703
14596SOL    HW144982   4.994   5.612   3.898 -0.2785  0.5347 -2.2177
14596SOL    HW244983   5.033   5.504   3.800  1.0228 -1.0429 -0.0491
14597SOL     OW44984   0.464   2.114   3.443 -0.5569 -0.2736  0.0332
14597SOL    HW144985   0.472   2.065   3.525 -1.1664  1.1773  0.9870
14597SOL    HW244986   0.539   2.173   3.443  1.5807 -2.7088 -2.2647
14598SOL     OW44987   7.317   7.353   1.998 -0.2672 -0.1861 -0.0367
14598SOL    HW144988   7.346   7.263   2.017 -1.1181 -0.4506  0.0180
14598SOL    HW244989   7.361   7.375   1.915  2.4591  0.5110  1.4666
14599SOL     OW44990   0.272   3.346   5.899 -0.5329 -0.2575  0.1461
14599SOL    HW144991   0.278   3.431   5.855  0.7439  0.2561  1.2484
14599SOL    HW244992   0.354   3.339   5.948 -1.1678 -1.5778  1.0612
14600SOL     OW44993   4.084   3.249   4.789 -0.0649  0.0796 -0.5268
14600SOL    HW144994   4.035   3.168   4.772 -1.1400  0.5376  0.3481
14600SOL    HW244995   4.113   3.241   4.880  0.8903  0.1413 -0.8146
14601SOL     OW44996   1.502   0.238   2.066  0.1458 -0.0049 -0.2248
14601SOL    HW144997   1.455   0.154   2.060 -1.4101  0.7135  1.0833
14601SOL    HW244998   1.495   0.275   1.978 -0.6511 -0.5007 -0.3844
14602SOL     OW44999   7.858   0.446   4.868 -0.3060  0.1509  0.1681
14602SOL    HW145000   7.764   0.434   4.878 -0.3332 -1.5354 -1.7109
14602SOL    HW245001   7.867   0.516   4.803 -0.3256 -1.0424 -1.1623
14603SOL     OW45002   5.570   2.634   6.460 -0.2507  0.4412  0.0458
14603SOL    HW145003   5.629   2.662   6.530  0.6451 -2.4844  0.6025
14603SOL    HW245004   5.499   2.588   6.505 -1.0408  0.7718 -0.8357
14604SOL     OW45005   1.291   3.264   5.869  0.5595 -0.0565  0.0391
14604SOL    HW145006   1.372   3.237   5.826 -0.8235 -1.6411 -1.7748
14604SOL    HW245007   1.254   3.329   5.809 -1.2245 -2.0367 -1.1596
14605SOL     OW45008   8.180   7.034   1.551 -0.2463  0.1762  0.5545
14605SOL    HW145009   8.100   7.057   1.597  0.2267  3.0675  0.1272
14605SOL    HW245010   8.249   7.039   1.617  0.2690  3.2076 -0.0611
14606SOL     OW45011   0.689   3.034   7.398 -0.2269 -0.0259  0.3306
14606SOL    HW145012   0.772   3.067   7.365 -0.0292  1.9235  2.5407
14606SOL    HW245013   0.714   2.960   7.454 -0.2358 -0.9199 -0.8087
14607SOL     OW45014   5.859   8.566   3.125  0.0183 -0.1899 -0.2011
14607SOL    HW145015   5.859   8.603   3.214 -1.3553 -1.7397  0.4982
14607SOL    HW245016   5.785   8.609   3.082  0.1776 -0.0519 -0.3410
14608SOL     OW45017   5.377   4.253   2.219 -0.2448  0.0508 -0.7412
14608SOL    HW145018   5.459   4.234   2.265 -0.1993  0.9335 -0.4526
14608SOL    HW245019   5.309   4.231   2.283 -0.2383 -0.6179 -0.9573
14609SOL     OW45020   6.240   0.320   5.754 -0.1056  0.0367  0.3234
14609SOL    HW145021   6.190   0.247   5.792  1.4285  0.1303  2.7109
14609SOL    HW245022   6.189   0.398   5.776 -0.1374 -0.0584  0.5890
14610SOL     OW45023   4.126   6.512   5.859  0.2453  0.5032 -0.5389
14610SOL    HW145024   4.030   6.508   5.851  0.1035  0.0300  0.9656
14610SOL    HW245025   4.143   6.602   5.885  0.1418  0.4496 -0.2741
14611SOL     OW45026   6.790   1.600   5.338 -0.1167  0.1349 -0.2240
14611SOL    HW145027   6.819   1.511   5.358  0.8523  0.6633  0.9373
14611SOL    HW245028   6.793   1.645   5.423 -1.1414  1.1222 -0.6922
14612SOL     OW45029   0.613   5.504   4.797 -0.5743  0.0962  0.6014
14612SOL    HW145030   0.584   5.426   4.844  0.9402 -1.9979 -1.6680
14612SOL    HW245031   0.698   5.526   4.836 -1.2551  1.0110  1.6160
14613SOL     OW45032   3.022   1.944   6.816  0.7515 -0.2202  0.3984
14613SOL    HW145033   3.020   2.001   6.893  0.7498 -0.1944  0.3795
14613SOL    HW245034   2.933   1.948   6.781  0.7670 -0.1882  0.3630
14614SOL     OW45035   0.659   3.604   5.086 -0.1509  0.3054 -0.0646
14614SOL    HW145036   0.597   3.550   5.037  1.9012 -0.7543 -1.6641
14614SOL    HW245037   0.638   3.694   5.061 -2.3688  0.1956  1.1268
14615SOL     OW45038   7.646   2.221   4.072  0.2879  0.0399 -0.0823
14615SOL    HW145039   7.718   2.163   4.098  1.0628  1.0635  0.1290
14615SOL    HW245040   7.602   2.243   4.154 -0.7054 -1.0970 -0.2746
14616SOL     OW45041   4.224   4.968   6.849 -0.1174  0.5574  0.1676
14616SOL    HW145042   4.250   5.060   6.854 -0.9855  0.7971  0.6277
14616SOL    HW245043   4.306   4.920   6.838  0.2677  1.4523 -1.2027
14617SOL     OW45044   1.052   6.495   1.615 -0.2553  0.0919  0.0577
14617SOL    HW145045   1.102   6.438   1.556  3.5777  0.4016  2.6293
14617SOL    HW245046   1.103   6.576   1.618  0.0357 -0.0629  3.9639
14618SOL     OW45047   5.629   2.879   7.428  0.2698  0.4586  0.1082
14618SOL    HW145048   5.645   2.895   7.335 -2.4383  1.2711 -0.3295
14618SOL    HW245049   5.650   2.962   7.471  0.3991  0.4606  0.0388
14619SOL     OW45050   2.073   0.899   6.400  0.0050  0.5669 -0.2747
14619SOL    HW145051   2.003   0.897   6.336 -0.0494  0.9883 -0.2313
14619SOL    HW245052   2.030   0.921   6.483  0.0942  0.1711 -0.1173
14620SOL     OW45053   7.860   6.959   1.401 -0.1638 -0.3900 -0.2955
14620SOL    HW145054   7.790   6.921   1.349 -1.4632 -0.3994  1.3691
14620SOL    HW245055   7.833   7.051   1.413  0.8784  0.0062 -0.8819
14621SOL     OW45056   6.218   6.307   4.790  0.4741  0.0534 -0.2145
14621SOL    HW145057   6.196   6.307   4.697  0.8382  1.5180 -0.3279
14621SOL    HW245058   6.211   6.399   4.817  0.2339 -0.3602  1.2462
14622SOL     OW45059   4.001   8.286   2.646 -0.3144 -0.2590  0.4191
14622SOL    HW145060   3.927   8.236   2.610 -0.4437  0.5912 -0.5383
14622SOL    HW245061   3.981   8.292   2.740 -0.9978 -0.8121  0.3245
14623SOL     OW45062   0.073   5.362   7.213 -0.0013  0.6274  0.7107
14623SOL    HW145063   0.137   5.356   7.284  0.7599 -1.0700 -0.0376
14623SOL    HW245064   0.032   5.275   7.211 -0.7643  0.9916 -0.2346
14624SOL     OW45065   5.318   4.910   2.217  0.2757  0.4715 -0.6122
14624SOL    HW145066   5.306   5.004   2.230  1.5942  0.3311  2.3467
14624SOL    HW245067   5.237   4.870   2.248  0.1419  0.5521 -0.8511
14625SOL     OW45068   8.360   6.094   3.993  0.0006  0.3757 -0.0571
14625SOL    HW145069   8.443   6.046   3.994 -0.0439  0.2565 -1.1050
14625SOL    HW245070   8.331   6.093   4.084  0.9888  0.1407  0.2696
14626SOL     OW45071   5.925   5.642   8.321 -0.2601 -0.3463 -0.3680
14626SOL    HW145072   5.881   5.705   8.263 -0.2168 -0.4348 -0.4972
14626SOL    HW245073   5.947   5.568   8.265 -0.0977 -0.3762 -0.2675
14627SOL     OW45074   2.677   3.707   6.369  0.4523 -0.3177  0.1159
14627SOL    HW145075   2.672   3.619   6.406 -0.3143 -0.4506 -0.2781
14627SOL    HW245076   2.662   3.765   6.443 -1.4637 -0.5869  0.0125
14628SOL     OW45077   7.635   2.916   3.951 -0.4822  0.1069 -0.3914
14628SOL    HW145078   7.574   2.926   3.878 -1.0505  0.2634  0.0920
14628SOL    HW245079   7.694   2.991   3.943 -1.2744  0.7876 -0.0165
14629SOL     OW45080   1.139   0.582   7.764 -0.4683  0.2721  0.4053
14629SOL    HW145081   1.135   0.631   7.682  2.4102  0.9089  0.5254
14629SOL    HW245082   1.048   0.570   7.789 -1.3943  1.8276 -1.8280
14630SOL     OW45083   1.826   3.711   0.965  0.1878 -0.0836 -0.2991
14630SOL    HW145084   1.855   3.674   1.048 -0.4750  0.9500  0.4174
14630SOL    HW245085   1.855   3.648   0.899  1.0417 -0.7411  0.6772
14631SOL     OW45086   4.340   1.323   8.170 -0.1452  0.2319  0.4747
14631SOL    HW145087   4.324   1.248   8.228 -1.5500 -0.1830 -0.4111
14631SOL    HW245088   4.433   1.316   8.148 -0.0059 -0.6415  1.2446
14632SOL     OW45089   2.942   6.569   7.391  0.0733  0.2910  0.5988
14632SOL    HW145090   2.952   6.619   7.310 -1.4563 -1.8345 -1.0256
14632SOL    HW245091   2.865   6.606   7.433  0.3495  0.8332  0.6308
14633SOL     OW45092   7.530   3.305   4.220  0.0549 -0.2397 -0.6883
14633SOL    HW145093   7.619   3.339   4.210 -0.2028  0.3688 -0.9936
14633SOL    HW245094   7.540   3.226   4.272  0.6611  0.3827  0.1611
14634SOL     OW45095   3.119   3.363   4.962 -0.6265  0.3886 -0.0276
14634SOL    HW145096   3.195   3.385   5.016 -0.1597 -1.4031  0.0984
14634SOL    HW245097   3.137   3.405   4.878  0.4544  0.1090  0.0409
14635SOL     OW45098   4.150   5.734   2.730  0.0665  0.0392 -0.2412
14635SOL    HW145099   4.084   5.689   2.783  0.2555 -0.1822 -0.1912
14635SOL    HW245100   4.100   5.796   2.677 -0.3401 -1.0735 -1.1974
14636SOL     OW45101   7.756   3.155   3.837  0.5720  0.4184 -0.3633
14636SOL    HW145102   7.815   3.228   3.858 -0.1119  0.6421  0.9287
14636SOL    HW245103   7.669   3.195   3.833  0.4564  0.0566 -2.0238
14637SOL     OW45104   1.691   1.758   0.441 -0.0585 -0.1323  0.0644
14637SOL    HW145105   1.775   1.723   0.472 -0.9990 -0.5036  2.3695
14637SOL    HW245106   1.713   1.804   0.360  2.0578 -1.7684 -0.3816
14638SOL     OW45107   0.531   0.033   4.457 -0.1462 -0.4724 -0.2194
14638SOL    HW145108   0.529   0.126   4.479 -2.6845 -0.3766 -0.5958
14638SOL    HW245109   0.582  -0.008   4.527  1.1470  1.1822 -0.1396
14639SOL     OW45110   2.600   0.589   6.944 -0.1405  0.3529 -0.6678
14639SOL    HW145111   2.508   0.613   6.937 -0.1502  0.5024 -0.0826
14639SOL    HW245112   2.624   0.613   7.034  0.9425  1.9888 -1.3341
14640SOL     OW45113   5.005   0.093   0.025 -0.7262  0.3694 -0.2242
14640SOL    HW145114   4.990   0.187   0.036  0.1772  0.8369 -2.3620
14640SOL    HW245115   4.998   0.079  -0.070 -0.2822 -1.6206 -0.0035
14641SOL     OW45116   5.711   3.452   0.453 -0.1431 -0.4688 -0.0627
14641SOL    HW145117   5.725   3.417   0.365 -0.3709  0.3879 -0.4429
14641SOL    HW245118   5.704   3.374   0.508 -0.6000 -1.0316 -0.8869
14642SOL     OW45119   1.985   2.604   2.104  0.7460 -0.1148 -0.0298
14642SOL    HW145120   1.959   2.666   2.035 -2.2590 -0.7938  0.3597
14642SOL    HW245121   1.935   2.632   2.181  2.9853 -0.2175  1.5575
14643SOL     OW45122   5.506   6.259   4.081 -0.2582  0.0845 -0.2633
14643SOL    HW145123   5.587   6.307   4.100  0.4913 -1.0078 -0.5481
14643SOL    HW245124   5.465   6.245   4.166 -1.1707  2.3185 -0.2833
14644SOL     OW45125   4.904   7.129   1.054  0.3761 -0.0534 -0.2612
14644SOL    HW145126   4.935   7.172   0.974  1.2456  0.1383  0.1706
14644SOL    HW245127   4.910   7.197   1.121 -0.0630 -0.3073  0.0405
14645SOL     OW45128   6.313   2.606   5.142  0.6001 -0.1366 -0.2688
14645SOL    HW145129   6.242   2.653   5.099 -0.2987 -1.9617 -0.8457
14645SOL    HW245130   6.318   2.645   5.230 -0.8757  0.2335 -0.3307
14646SOL     OW45131   4.293   6.134   1.958 -0.4974  0.0618 -0.6319
14646SOL    HW145132   4.284   6.203   1.893  0.5017 -0.9622 -1.9353
14646SOL    HW245133   4.256   6.057   1.916  0.3570 -0.6680 -0.0892
14647SOL     OW45134   0.991   4.207   6.403  0.1165  0.5036  0.1557
14647SOL    HW145135   0.996   4.299   6.430  2.5765  1.0088 -1.6586
14647SOL    HW245136   0.897   4.190   6.394 -0.3972  3.1641 -0.5038
14648SOL     OW45137   3.925   6.431   0.056  0.3328 -0.4894  0.2455
14648SOL    HW145138   4.006   6.444   0.106  0.1675 -1.1561  0.6843
14648SOL    HW245139   3.949   6.458  -0.033  1.1948 -1.1442  0.2578
14649SOL     OW45140   7.155   1.936   4.674 -0.6898  0.3351 -0.0888
14649SOL    HW145141   7.171   1.942   4.768 -3.7575 -1.8288  0.7273
14649SOL    HW245142   7.077   1.989   4.660 -1.2196 -0.6731 -1.0738
14650SOL     OW45143   1.513   8.290   7.148  0.0150 -0.0885 -0.5295
14650SOL    HW145144   1.593   8.313   7.102 -0.2789  0.4212 -0.7910
14650SOL    HW245145   1.443   8.336   7.101 -0.5592 -1.2594 -0.8748
14651SOL     OW45146   4.932   3.707   2.640 -0.4848  0.4707 -0.4308
14651SOL    HW145147   4.963   3.668   2.559  0.2792  0.3236 -0.0750
14651SOL    HW245148   4.883   3.636   2.683  2.3168 -0.7277  1.0158
14652SOL     OW45149   7.968   6.896   0.713  0.4865  0.0908  0.6092
14652SOL    HW145150   7.994   6.924   0.625 -0.7898 -0.8474 -0.1036
14652SOL    HW245151   7.886   6.849   0.699 -0.1359  0.5752  2.4076
14653SOL     OW45152   4.534   2.935   6.499  0.6062  0.3818  0.9013
14653SOL    HW145153   4.572   3.021   6.483  1.0192 -0.1139 -1.0785
14653SOL    HW245154   4.469   2.924   6.430 -0.4929 -0.3169  2.0069
14654SOL     OW45155   2.147   3.379   6.207 -0.1960  0.1845 -0.3431
14654SOL    HW145156   2.237   3.405   6.225 -0.4035  0.5623  0.1648
14654SOL    HW245157   2.098   3.405   6.285 -0.7418 -0.0401 -0.6039
14655SOL     OW45158   3.629   8.585   7.979 -0.0699  0.0203  0.0221
14655SOL    HW145159   3.567   8.596   8.051  2.0078 -1.1383  2.1544
14655SOL    HW245160   3.623   8.492   7.957  0.2404  0.1058 -0.4419
14656SOL     OW45161   6.552   8.217   5.692  0.1003  0.1543 -0.2781
14656SOL    HW145162   6.513   8.165   5.762  1.2948  0.4167  0.6081
14656SOL    HW245163   6.483   8.279   5.667 -0.1617  0.4117  1.0411
14657SOL     OW45164   5.254   0.659   3.458  0.2648  0.3089 -0.1694
14657SOL    HW145165   5.178   0.638   3.512 -0.6469  0.0851 -1.4644
14657SOL    HW245166   5.223   0.646   3.368  1.3170  1.9107 -0.8146
14658SOL     OW45167   5.307   1.084   8.460  0.1700 -0.4213 -0.6134
14658SOL    HW145168   5.296   0.990   8.442 -1.0156 -0.3794 -0.2291
14658SOL    HW245169   5.266   1.127   8.385  1.0725 -0.1917 -0.9889
14659SOL     OW45170   2.246   4.553   5.398 -0.0252  0.3811  0.2759
14659SOL    HW145171   2.207   4.624   5.450  0.2269  0.1432  0.8006
14659SOL    HW245172   2.330   4.535   5.441 -1.4866 -2.5101  2.3077
14660SOL     OW45173   1.391   4.545   8.423 -0.0051 -0.2967 -0.2807
14660SOL    HW145174   1.457   4.611   8.448 -0.5794 -0.3567  1.5695
14660SOL    HW245175   1.361   4.573   8.337 -0.2837  1.9565  0.4661
14661SOL     OW45176   1.866   3.221   6.757 -0.1330 -0.4694  0.2910
14661SOL    HW145177   1.940   3.202   6.698  1.0071 -0.5192  1.6746
14661SOL    HW245178   1.867   3.316   6.765 -1.2812 -0.3204 -0.9532
14662SOL     OW45179   0.627   3.521   4.058 -0.4932  0.0858 -0.4509
14662SOL    HW145180   0.646   3.533   4.152 -1.4438 -0.8629 -0.1227
14662SOL    HW245181   0.551   3.464   4.056 -0.9656  0.7272 -1.8112
14663SOL     OW45182   4.840   5.775   1.395  0.2223  0.3188  0.7832
14663SOL    HW145183   4.912   5.721   1.426  0.1639  0.4583  1.1711
14663SOL    HW245184   4.881   5.855   1.365  0.2940  0.1223  0.3558
14664SOL     OW45185   7.630   7.948   7.689  0.3354  0.3536 -0.1935
14664SOL    HW145186   7.661   7.935   7.599 -1.2820  1.4631 -0.9636
14664SOL    HW245187   7.651   7.866   7.734  0.5441 -0.4920 -1.7724
14665SOL     OW45188   7.251   5.684   6.026 -0.2631 -0.0484 -0.0521
14665SOL    HW145189   7.287   5.692   6.115  0.1128 -2.8577  0.1408
14665SOL    HW245190   7.157   5.673   6.040 -0.6218  2.3248 -0.2450
14666SOL     OW45191   0.749   7.100   3.299 -0.1844  0.1469  0.4138
14666SOL    HW145192   0.814   7.042   3.259 -0.8317 -1.5842  1.7524
14666SOL    HW245193   0.702   7.138   3.225  0.5890 -0.6395 -0.5152
14667SOL     OW45194   3.248   2.898   4.569  0.2998 -0.4470  0.1575
14667SOL    HW145195   3.152   2.893   4.576  0.3260 -2.1274 -0.1996
14667SOL    HW245196   3.280   2.849   4.645  0.9046  0.4900  0.5234
14668SOL     OW45197   4.619   4.315   0.021 -0.2760 -0.0849 -0.0847
14668SOL    HW145198   4.659   4.291   0.105  0.0761  2.2304  0.4766
14668SOL    HW245199   4.670   4.268  -0.045 -0.0033 -1.2591  0.9469
14669SOL     OW45200   5.753   5.752   6.489  0.4337  0.2126  0.0263
14669SOL    HW145201   5.710   5.703   6.559 -1.8372  0.2063 -1.2562
14669SOL    HW245202   5.806   5.817   6.534  0.8804 -1.2498  1.7323
14670SOL     OW45203   2.838   5.975   3.748 -0.8118  0.3542  0.1073
14670SOL    HW145204   2.761   6.023   3.717 -0.3305  1.4887  0.6192
14670SOL    HW245205   2.899   6.042   3.776  0.7001 -0.5088 -0.9837
14671SOL     OW45206   5.925   5.451   4.174  0.7676 -0.0712  0.1664
14671SOL    HW145207   5.903   5.418   4.087 -0.5082  1.1604 -0.0086
14671SOL    HW245208   5.948   5.543   4.160  0.9364  0.0390  1.0871
14672SOL     OW45209   2.494   1.244   2.897  0.4505  0.0161 -0.3522
14672SOL    HW145210   2.507   1.157   2.934 -0.4394  0.4852  1.1278
14672SOL    HW245211   2.402   1.265   2.915  0.8532  1.5804  0.0528
14673SOL     OW45212   0.753   3.475   5.348  0.1172  0.5191 -0.1006
14673SOL    HW145213   0.703   3.543   5.392  0.9533 -0.7450  3.0551
14673SOL    HW245214   0.829   3.521   5.311  0.0173  1.4708  0.8452
14674SOL     OW45215   8.071   5.446   0.227  0.1888  0.0372  0.2685
14674SOL    HW145216   7.994   5.439   0.171  0.0119  0.6010  0.4311
14674SOL    HW245217   8.063   5.373   0.288  1.2649 -1.6346 -1.4698
14675SOL     OW45218   0.898   0.568   7.854  0.2323 -0.1843 -0.5808
14675SOL    HW145219   0.820   0.515   7.838 -0.4154 -0.0248  1.7850
14675SOL    HW245220   0.925   0.546   7.943  1.9989  0.9084 -0.7957
14676SOL     OW45221   3.205   5.692   0.605  0.0951 -0.1063 -0.1458
14676SOL    HW145222   3.112   5.670   0.594  0.2443 -0.4932 -0.6336
14676SOL    HW245223   3.204   5.782   0.639 -0.4696 -0.2656  0.2721
14677SOL     OW45224   5.837   5.151   2.732  0.0695 -0.2277  0.7182
14677SOL    HW145225   5.794   5.082   2.782  0.0611 -0.3267  0.5758
14677SOL    HW245226   5.826   5.230   2.785 -0.0055 -0.3166  0.8348
14678SOL     OW45227   8.595   3.349   0.797  0.1848 -0.0592 -0.2039
14678SOL    HW145228   8.561   3.381   0.881 -2.5466 -0.1883 -1.1694
14678SOL    HW245229   8.607   3.428   0.745  2.0765  0.0383  0.3253
14679SOL     OW45230   8.574   7.096   5.733 -0.1779  0.5241 -0.2573
14679SOL    HW145231   8.506   7.144   5.780 -0.6910 -0.3228 -0.1005
14679SOL    HW245232   8.602   7.028   5.795 -1.6177 -1.3086 -1.4750
14680SOL     OW45233   3.215   1.102   5.068 -0.0423 -0.6332 -0.6562
14680SOL    HW145234   3.308   1.083   5.059  0.1440  0.6199 -1.8398
14680SOL    HW245235   3.206   1.193   5.036 -1.4989 -0.3622  0.4207
14681SOL     OW45236   5.697   6.857   1.945  0.0584  0.1721 -0.2861
14681SOL    HW145237   5.724   6.765   1.951  1.0830  0.4784 -0.1062
14681SOL    HW245238   5.605   6.857   1.973  0.5192 -0.5511  1.3400
14682SOL     OW45239   7.945   1.863   5.502 -0.5909  0.4690  0.3023
14682SOL    HW145240   7.945   1.927   5.573 -0.0872  0.2612  0.4952
14682SOL    HW245241   8.037   1.838   5.492 -0.5884  0.8533 -0.7501
14683SOL     OW45242   6.899   2.121   2.414  0.4940  0.4157 -0.1083
14683SOL    HW145243   6.991   2.124   2.441  0.2908  0.1225  0.6477
14683SOL    HW245244   6.867   2.038   2.448  0.1405  0.1551 -1.0450
14684SOL     OW45245   1.275   0.265   7.957 -0.1450  0.8999  0.2649
14684SOL    HW145246   1.237   0.224   8.034 -0.9066 -0.4359 -0.7782
14684SOL    HW245247   1.349   0.209   7.933 -1.5196 -0.2664 -1.4806
14685SOL     OW45248   6.812   3.356   0.997 -0.5079 -0.2361 -0.2115
14685SOL    HW145249   6.851   3.442   0.982  0.7031 -0.8706 -0.8610
14685SOL    HW245250   6.827   3.339   1.090  0.6505 -0.3912 -0.4118
14686SOL     OW45251   1.132   4.757   5.252 -0.1292  0.1971  0.7873
14686SOL    HW145252   1.125   4.663   5.235  1.2474  0.1105  0.5417
14686SOL    HW245253   1.078   4.798   5.184 -0.0371 -0.3909  0.3473
14687SOL     OW45254   0.246   6.103   3.268  0.4548 -0.1077  0.0503
14687SOL    HW145255   0.172   6.049   3.237  1.1435  0.6741 -3.4491
14687SOL    HW245256   0.291   6.047   3.331 -0.5817 -2.4691 -1.1468
14688SOL     OW45257   3.510   7.442   0.436 -0.3040 -0.1797  0.2245
14688SOL    HW145258   3.505   7.504   0.509 -0.6560  0.5138 -0.3779
14688SOL    HW245259   3.470   7.489   0.362 -0.7712 -1.2057 -0.1856
14689SOL     OW45260   8.101   5.877   5.587 -0.5357 -0.2447 -0.2040
14689SOL    HW145261   8.119   5.952   5.643  1.1341 -1.8159  1.4786
14689SOL    HW245262   8.007   5.862   5.597 -0.6967  0.9636  0.2687
14690SOL     OW45263   0.384   6.818   0.375  0.4954  0.1698 -0.4326
14690SOL    HW145264   0.412   6.852   0.290 -1.1226  0.4250 -0.8865
14690SOL    HW245265   0.354   6.729   0.357  0.7393 -0.0047 -0.0045
14691SOL     OW45266   0.800   8.221   2.253  0.9589  0.4359 -0.5778
14691SOL    HW145267   0.713   8.259   2.248 -0.3041 -2.2024 -0.5652
14691SOL    HW245268   0.791   8.135   2.211  3.0184 -0.7705  1.2164
14692SOL     OW45269   4.762   3.015   2.157 -0.3609 -0.0121 -0.0008
14692SOL    HW145270   4.690   2.990   2.214 -0.2934  0.1684  0.1657
14692SOL    HW245271   4.746   3.107   2.137  0.9815  0.6838  1.8092
14693SOL     OW45272   0.689   0.092   7.333  0.6793  0.2414  0.3449
14693SOL    HW145273   0.774   0.085   7.375  0.7189  0.8773  0.3878
14693SOL    HW245274   0.649   0.006   7.345  1.4495 -0.1669  0.0147
14694SOL     OW45275   2.163   5.333   5.235 -0.1498 -0.1123  0.4891
14694SOL    HW145276   2.210   5.416   5.228 -2.1045  1.0255  0.0465
14694SOL    HW245277   2.205   5.288   5.309  2.0724  0.4649 -0.3270
14695SOL     OW45278   1.283   2.674   3.195 -0.5499  0.5067  0.1046
14695SOL    HW145279   1.311   2.692   3.105  1.5835 -0.1245  0.5955
14695SOL    HW245280   1.347   2.719   3.249 -1.4131  0.3040  1.3182
14696SOL     OW45281   1.019   1.903   6.016  0.2943  0.2100  0.9280
14696SOL    HW145282   1.031   1.879   5.924  1.1754  0.3085  1.0134
14696SOL    HW245283   0.940   1.856   6.043  0.6857 -0.7501  0.4431
14697SOL     OW45284   1.990   5.411   7.303 -0.3085  0.3173 -0.2673
14697SOL    HW145285   2.042   5.350   7.252 -0.6000 -0.7703  0.6901
14697SOL    HW245286   2.027   5.407   7.391 -0.8001  0.9734 -0.0145
14698SOL     OW45287   1.665   3.412   2.489  0.3563 -0.5513 -0.7557
14698SOL    HW145288   1.622   3.365   2.417 -0.9342  0.4080 -0.6415
14698SOL    HW245289   1.603   3.481   2.512  1.0827 -0.3953  0.7961
14699SOL     OW45290   3.661   5.945   8.519 -0.3098  0.1738  0.3588
14699SOL    HW145291   3.610   5.878   8.474 -0.2745  1.0205 -0.9974
14699SOL    HW245292   3.596   5.990   8.574 -0.1197 -1.6528  2.1813
14700SOL     OW45293   5.031   3.625   0.864 -0.2539  0.0543 -0.8369
14700SOL    HW145294   4.941   3.613   0.833 -0.1596 -0.1444 -1.0311
14700SOL    HW245295   5.021   3.652   0.955 -0.4807 -0.8752 -0.5763
14701SOL     OW45296   4.334   1.039   1.982  0.0043  0.1929 -0.0409
14701SOL    HW145297   4.261   1.076   1.932  0.0181  0.4256  0.1050
14701SOL    HW245298   4.412   1.071   1.938  0.0177  0.8949  0.4765
14702SOL     OW45299   3.946   5.538   3.247  0.0661 -0.2317  0.0468
14702SOL    HW145300   4.028   5.507   3.209  1.0334  0.9164  1.0747
14702SOL    HW245301   3.973   5.604   3.311 -1.4851 -1.6987  2.3715
14703SOL     OW45302   1.900   6.418   7.817  0.3093 -0.4366 -0.0014
14703SOL    HW145303   1.818   6.461   7.840  0.6602 -1.1663  3.0020
14703SOL    HW245304   1.959   6.489   7.793  0.3468  0.7222  3.1023
14704SOL     OW45305   1.953   2.487   1.249  0.2459 -0.0692  0.0968
14704SOL    HW145306   1.942   2.408   1.197  1.2204 -0.9642  1.1935
14704SOL    HW245307   1.937   2.559   1.188  1.1447 -1.0782 -1.3810
14705SOL     OW45308   4.876   2.988   8.039 -0.0046 -0.2731 -0.7988
14705SOL    HW145309   4.837   3.040   8.110  0.5871  0.0451 -0.6988
14705SOL    HW245310   4.906   2.908   8.081  0.3358 -0.0892 -0.6885
14706SOL     OW45311   8.277   3.425   4.307  0.2523  0.6832  0.2699
14706SOL    HW145312   8.350   3.441   4.247  0.0006 -0.4462 -0.3751
14706SOL    HW245313   8.223   3.503   4.301 -0.4579  0.0939 -2.0163
14707SOL     OW45314   1.768   8.316   7.014  0.3660  0.3693 -0.4537
14707SOL    HW145315   1.858   8.311   6.982  0.3997  1.2212 -0.5117
14707SOL    HW245316   1.772   8.283   7.104  0.5100 -0.7534 -0.8563
14708SOL     OW45317   5.497   3.703   5.578 -0.3681  0.4828 -0.1401
14708SOL    HW145318   5.485   3.719   5.484 -1.2483  0.6260 -0.0050
14708SOL    HW245319   5.409   3.688   5.612  0.0008 -0.2195  0.5520
14709SOL     OW45320   7.899   0.233   3.171  0.7680 -0.3079 -0.1673
14709SOL    HW145321   7.948   0.314   3.181  0.2438  0.5534 -3.3087
14709SOL    HW245322   7.808   0.261   3.160  0.1183 -1.5796  1.4926
14710SOL     OW45323   2.084   7.225   0.558  0.4544 -0.4387  0.3070
14710SOL    HW145324   2.067   7.141   0.516 -1.3358 -0.2156  0.4838
14710SOL    HW245325   2.130   7.276   0.491  0.6416 -1.2035 -0.1648
14711SOL     OW45326   0.460   6.543   1.596  0.1165  0.2111  0.2043
14711SOL    HW145327   0.481   6.630   1.631  0.2871 -0.4012  1.7037
14711SOL    HW245328   0.511   6.483   1.649  0.2814 -0.8004 -1.0610
14712SOL     OW45329   0.540   2.658   3.634  0.2790 -0.0664  0.3221
14712SOL    HW145330   0.446   2.642   3.644  0.4576 -1.7526 -0.2756
14712SOL    HW245331   0.546   2.726   3.567 -0.5178  0.0790  0.3893
14713SOL     OW45332   8.482   7.941   1.060  0.3723 -0.1626 -0.2909
14713SOL    HW145333   8.412   7.891   1.101  0.2357 -0.5174 -0.9396
14713SOL    HW245334   8.468   8.031   1.089  1.0883 -0.6025  1.5391
14714SOL     OW45335   3.174   1.421   0.607 -0.3177  0.1252 -0.3648
14714SOL    HW145336   3.085   1.391   0.588 -0.1579 -1.9838  1.8618
14714SOL    HW245337   3.194   1.386   0.693  2.6116  0.7821 -0.6745
14715SOL     OW45338   0.939   2.226   4.451  0.1551 -0.2984  0.0273
14715SOL    HW145339   1.022   2.196   4.488 -0.7131 -1.8757  0.7901
14715SOL    HW245340   0.884   2.148   4.448 -1.2316  0.6518 -0.7188
14716SOL     OW45341   7.729   5.070   0.673 -0.4175  0.3998 -0.5898
14716SOL    HW145342   7.732   5.147   0.729 -1.4731 -0.0394  0.1097
14716SOL    HW245343   7.754   5.101   0.586 -2.1883  1.8112 -0.6241
14717SOL     OW45344   4.221   2.920   3.281  0.0858 -0.3125 -0.2036
14717SOL    HW145345   4.175   2.981   3.224 -2.7514 -0.3964  1.7509
14717SOL    HW245346   4.172   2.838   3.272  0.3056 -0.6557  1.3843
14718SOL     OW45347   0.650   3.560   8.550  0.2121  0.1336 -0.1608
14718SOL    HW145348   0.692   3.632   8.596  1.2251  0.0932 -0.9812
14718SOL    HW245349   0.717   3.527   8.490 -1.0420  0.2238 -1.7051
14719SOL     OW45350   5.831   2.020   3.781  0.1167  0.4405  0.1149
14719SOL    HW145351   5.739   2.012   3.803  0.1252 -3.0171 -0.4472
14719SOL    HW245352   5.833   2.082   3.708 -1.7313  0.7015  0.2346
14720SOL     OW45353   2.553   5.339   7.174  0.5502 -0.6362  0.0788
14720SOL    HW145354   2.608   5.300   7.106  1.7307 -0.6898  1.0224
14720SOL    HW245355   2.615   5.361   7.244 -0.3517  1.2519  0.3241
14721SOL     OW45356   8.105   4.137   0.907 -0.0398 -0.3457  0.2537
14721SOL    HW145357   8.040   4.084   0.953  1.4260  0.3984  3.4158
14721SOL    HW245358   8.062   4.222   0.895  0.2099  0.0690  2.1003
14722SOL     OW45359   0.408   4.915   5.517  0.4222  0.3891  0.0096
14722SOL    HW145360   0.331   4.938   5.569  0.7426  2.9131 -0.5195
14722SOL    HW245361   0.482   4.936   5.574  0.7528  0.0751 -0.2964
14723SOL     OW45362   7.241   1.339   2.984 -0.5422  0.2929  0.2017
14723SOL    HW145363   7.203   1.304   2.903  0.9341  2.2762 -1.4486
14723SOL    HW245364   7.335   1.324   2.975 -0.1093  2.5339  0.4751
14724SOL     OW45365   5.291   2.066   5.068  0.1815 -0.6690  0.9681
14724SOL    HW145366   5.258   2.018   4.992  0.8371 -0.8874  0.8183
14724SOL    HW245367   5.385   2.073   5.053  0.3306 -0.7954  1.8055
14725SOL     OW45368   7.926   6.277   7.187  0.1604  0.0070 -0.1160
14725SOL    HW145369   7.831   6.277   7.173  0.3800 -0.0926 -1.9106
14725SOL    HW245370   7.963   6.250   7.102  1.8067  0.4798  0.4026
14726SOL     OW45371   2.424   2.950   5.083  0.0051 -0.0505  0.3119
14726SOL    HW145372   2.426   2.997   5.165  2.3071 -0.1947  0.4154
14726SOL    HW245373   2.445   3.015   5.016  0.8393 -0.4359  0.1806
14727SOL     OW45374   7.643   6.888   3.064 -0.1529  0.1189 -0.4988
14727SOL    HW145375   7.551   6.884   3.036 -0.3461  1.2629 -0.0482
14727SOL    HW245376   7.641   6.938   3.146  0.8439 -0.0859 -0.3443
14728SOL     OW45377   0.289   5.858   8.485 -0.6270 -0.3200  0.1533
14728SOL    HW145378   0.302   5.848   8.391  1.2780 -1.2713  0.4593
14728SOL    HW245379   0.351   5.927   8.510  0.1878 -1.2879  0.9306
14729SOL     OW45380   6.376   1.672   8.267  0.1074 -0.2198  0.2436
14729SOL    HW145381   6.288   1.649   8.294 -0.1383 -0.0157 -0.3721
14729SOL    HW245382   6.427   1.592   8.277 -0.8275 -1.2347 -2.3072
14730SOL     OW45383   8.101   6.446   4.153 -0.1716 -0.3715  0.2963
14730SOL    HW145384   8.171   6.388   4.184 -0.8482 -1.2823  0.1754
14730SOL    HW245385   8.031   6.386   4.126 -0.7444  0.5019 -0.1951
14731SOL     OW45386   3.429   5.313   2.969 -0.0114 -0.3516 -0.5196
14731SOL    HW145387   3.341   5.304   3.004 -0.0914  2.8877  0.4741
14731SOL    HW245388   3.416   5.342   2.878  0.0928 -1.1468 -0.7997
14732SOL     OW45389   1.775   1.675   7.778  0.0696 -0.4411 -0.3411
14732SOL    HW145390   1.824   1.730   7.838 -1.8026  0.3934  0.5144
14732SOL    HW245391   1.728   1.613   7.835 -2.1622  0.7086 -0.8273
14733SOL     OW45392   1.929   5.943   6.623 -0.5282  0.5934  0.4208
14733SOL    HW145393   1.970   5.921   6.539 -0.7040 -1.2959  0.7807
14733SOL    HW245394   1.980   5.895   6.688 -1.0154  1.2274  1.2916
14734SOL     OW45395   1.372   2.510   5.836  0.3488 -0.1884 -0.4115
14734SOL    HW145396   1.300   2.566   5.806  0.5548 -1.0166 -2.6101
14734SOL    HW245397   1.337   2.467   5.915 -1.9957 -1.2796 -1.9121
14735SOL     OW45398   1.847   2.099   0.005  0.5273 -0.1584  0.3022
14735SOL    HW145399   1.810   2.055  -0.071 -0.7437  0.7704  0.3503
14735SOL    HW245400   1.899   2.171  -0.031  0.8723 -0.4116  0.2877
14736SOL     OW45401   2.066   4.871   4.738 -0.6040 -0.0009 -0.5615
14736SOL    HW145402   2.128   4.842   4.671 -1.8970 -0.0830 -1.7744
14736SOL    HW245403   2.041   4.959   4.712  0.0588  0.5845  0.7144
14737SOL     OW45404   5.009   2.697   5.568  0.1486  0.3835 -0.4055
14737SOL    HW145405   5.012   2.740   5.482  0.1378 -1.7172 -1.5339
14737SOL    HW245406   5.094   2.716   5.608  0.3348  1.0065 -1.0862
14738SOL     OW45407   1.223   2.786   5.289  0.5889 -0.4988 -0.5508
14738SOL    HW145408   1.227   2.871   5.243  0.5326  0.0102  0.3654
14738SOL    HW245409   1.129   2.769   5.297  0.5214  0.5319  1.3524
14739SOL     OW45410   7.274   7.583   7.369 -0.2842 -0.0189  0.6662
14739SOL    HW145411   7.303   7.493   7.385 -2.1984 -0.7308  0.4164
14739SOL    HW245412   7.279   7.593   7.273 -1.6823 -0.4702  0.5320
14740SOL     OW45413   8.452   3.949   5.691  0.0836  0.0509 -1.0140
14740SOL    HW145414   8.395   3.988   5.624 -0.8803 -0.1397 -0.3338
14740SOL    HW245415   8.413   3.977   5.774  1.0068 -0.0760 -0.5298
14741SOL     OW45416   0.796   1.791   7.644  0.0676 -0.4858  0.1443
14741SOL    HW145417   0.821   1.828   7.559  0.4042 -1.6316 -0.2677
14741SOL    HW245418   0.815   1.698   7.637 -1.4008 -0.8757  0.9278
14742SOL     OW45419   6.991   7.129   6.798  0.1887  0.0680  0.3738
14742SOL    HW145420   7.038   7.066   6.743 -1.5873 -2.3947  1.4827
14742SOL    HW245421   6.978   7.206   6.742  2.5552 -0.4320 -1.0041
14743SOL     OW45422   6.535   3.201   6.444 -0.0806 -0.3759  0.0452
14743SOL    HW145423   6.546   3.289   6.406 -0.9515 -0.9145 -1.5385
14743SOL    HW245424   6.609   3.192   6.504  0.7412  0.9579 -0.7105
14744SOL     OW45425   1.591   3.205   4.064  0.2526  0.2810 -0.5368
14744SOL    HW145426   1.540   3.281   4.038  1.0589  0.6163 -1.1833
14744SOL    HW245427   1.670   3.240   4.104  0.9022 -0.1806 -1.3620
14745SOL     OW45428   5.752   6.803   4.700 -0.0544 -0.3749 -0.0986
14745SOL    HW145429   5.696   6.785   4.775  1.9338 -1.5137  1.2038
14745SOL    HW245430   5.714   6.752   4.629 -0.4852 -1.4105  0.8394
14746SOL     OW45431   3.642   2.038   3.068  1.0705 -0.0904 -0.6566
14746SOL    HW145432   3.550   2.061   3.079  0.8995  0.1675 -2.4804
14746SOL    HW245433   3.674   2.024   3.158 -0.5716  0.4133  0.0313
14747SOL     OW45434   5.017   2.732   3.696  0.4161  0.8063  0.3025
14747SOL    HW145435   5.082   2.703   3.760  1.0446  1.2428 -0.1289
14747SOL    HW245436   4.934   2.697   3.728  1.0013 -0.6021  0.3419
14748SOL     OW45437   5.571   2.885   0.360  0.2012 -0.2789  0.6538
14748SOL    HW145438   5.554   2.967   0.407  1.6128  1.0899 -1.0827
14748SOL    HW245439   5.496   2.876   0.301  0.2667 -0.0103  0.5308
14749SOL     OW45440   3.630   8.425   6.366 -0.2501  0.0254  0.1369
14749SOL    HW145441   3.595   8.343   6.332  2.2561 -0.8001 -0.6360
14749SOL    HW245442   3.668   8.401   6.451 -2.6239  1.2001  1.6553
14750SOL     OW45443   0.190   2.136   0.758 -0.3065  0.3424 -0.3343
14750SOL    HW145444   0.158   2.201   0.695  0.2255 -0.0653 -1.0455
14750SOL    HW245445   0.247   2.079   0.706  0.5750  0.3104  0.6316
14751SOL     OW45446   5.256   5.559   7.331  0.7012 -0.0098  0.5918
14751SOL    HW145447   5.285   5.642   7.293 -1.3250  0.9988  1.0980
14751SOL    HW245448   5.169   5.544   7.294  0.0884 -0.7232  2.2184
14752SOL     OW45449   4.829   1.036   1.244  0.1435 -0.0825 -0.5869
14752SOL    HW145450   4.905   1.052   1.301  0.6278  0.8025 -1.4592
14752SOL    HW245451   4.826   0.941   1.236  1.3515 -0.1226 -0.7831
14753SOL     OW45452   4.770   1.434   2.994  0.1456 -0.1357  0.2494
14753SOL    HW145453   4.708   1.492   3.039 -0.5043  1.1340 -2.0977
14753SOL    HW245454   4.856   1.460   3.027 -0.1604  1.9510 -0.4358
14754SOL     OW45455   3.045   6.448   2.783 -0.1918 -0.2789  0.0581
14754SOL    HW145456   2.969   6.460   2.726  0.2448  2.4472 -0.1059
14754SOL    HW245457   3.108   6.513   2.752  0.9626 -0.2928  2.1932
14755SOL     OW45458   3.895   1.586   3.495  0.0260 -0.3190 -0.1464
14755SOL    HW145459   3.975   1.635   3.515 -0.1987 -0.4096  1.0490
14755SOL    HW245460   3.900   1.509   3.552 -0.5223 -0.7392 -0.6596
14756SOL     OW45461   3.925   5.752   4.801 -0.4350 -0.2448  0.3886
14756SOL    HW145462   3.891   5.841   4.812  0.3805 -0.0028  1.1076
14756SOL    HW245463   3.893   5.705   4.877 -2.0180 -0.9706 -0.6755
14757SOL     OW45464   6.249   7.575   2.105 -0.1039 -0.2111  0.0449
14757SOL    HW145465   6.208   7.620   2.030 -1.9273 -0.2753  0.9604
14757SOL    HW245466   6.326   7.629   2.125 -0.5870  0.8262 -0.7572
14758SOL     OW45467   3.478   5.643   5.292  0.2639 -0.0231  0.4451
14758SOL    HW145468   3.400   5.649   5.238  0.7337 -0.1171 -0.2572
14758SOL    HW245469   3.507   5.734   5.302 -1.0683  0.2549  2.4439
14759SOL     OW45470   5.506   2.169   7.784 -0.4183  0.6886  0.2334
14759SOL    HW145471   5.551   2.239   7.831  0.8147  0.1220 -0.0632
14759SOL    HW245472   5.419   2.166   7.823 -0.7309  2.7883 -0.1654
14760SOL     OW45473   3.217   8.258   2.065  0.0979  0.0537 -0.4704
14760SOL    HW145474   3.164   8.338   2.062  0.0287  0.0181 -0.2582
14760SOL    HW245475   3.169   8.195   2.011 -0.6515 -0.3099  0.5803
14761SOL     OW45476   6.491   5.149   0.964  0.1787  0.3323  0.5585
14761SOL    HW145477   6.509   5.107   1.048 -0.1038 -1.6408 -0.3185
14761SOL    HW245478   6.576   5.182   0.935  0.9481 -1.8695  0.1384
14762SOL     OW45479   7.178   8.214   4.691  0.5313 -0.2360 -0.1456
14762SOL    HW145480   7.106   8.258   4.736 -1.2004 -1.0628 -1.9719
14762SOL    HW245481   7.252   8.274   4.702 -0.4420  0.7425  1.6189
14763SOL     OW45482   2.439   2.843   6.355  0.0272 -0.0595 -0.2201
14763SOL    HW145483   2.482   2.927   6.364  0.9690 -0.4939 -0.5857
14763SOL    HW245484   2.399   2.827   6.441  0.9336  0.1733  0.2529
14764SOL     OW45485   8.099   1.076   6.903  0.5344 -0.0128 -0.0687
14764SOL    HW145486   8.125   0.986   6.924  3.0353  1.0771  2.0806
14764SOL    HW245487   8.169   1.109   6.846  0.6254  1.0997  0.6498
14765SOL     OW45488   4.634   4.317   5.247 -0.0527 -0.5146  0.1958
14765SOL    HW145489   4.608   4.356   5.164 -0.5653  0.2855  0.7189
14765SOL    HW245490   4.724   4.347   5.262 -0.6631  1.0851  0.9196
14766SOL     OW45491   0.328   2.265   4.244  0.9268 -0.1860 -0.4125
14766SOL    HW145492   0.383   2.325   4.192  1.1351 -0.9970 -1.1605
14766SOL    HW245493   0.391   2.206   4.286  0.9834  1.9980  2.9241
14767SOL     OW45494   4.036   4.373   8.495 -0.3042 -0.4023 -0.0746
14767SOL    HW145495   3.996   4.421   8.422  1.1148 -0.8449 -1.1687
14767SOL    HW245496   4.089   4.305   8.454 -0.1414 -1.2055  1.3980
14768SOL     OW45497   3.549   7.173   8.200 -0.0867  0.0363 -0.5940
14768SOL    HW145498   3.538   7.129   8.284  0.0483 -0.9936 -1.0949
14768SOL    HW245499   3.593   7.108   8.145 -0.5082  0.5526 -1.5658
14769SOL     OW45500   6.022   0.528   0.942  0.3922 -0.0068 -0.2623
14769SOL    HW145501   6.114   0.512   0.920  0.2855  0.8093 -1.3892
14769SOL    HW245502   5.975   0.507   0.861 -0.2955  0.6752 -0.0469
14770SOL     OW45503   6.015   6.350   5.618  0.7316 -0.4217  0.0741
14770SOL    HW145504   6.058   6.376   5.537  2.9409 -2.4246  0.4856
14770SOL    HW245505   6.051   6.263   5.638  0.1391 -0.0955  3.0826
14771SOL     OW45506   8.119   6.030   7.208  0.1428  0.7838 -0.1697
14771SOL    HW145507   8.166   6.024   7.291 -1.0624  2.5738  0.7206
14771SOL    HW245508   8.171   6.091   7.155  0.6831 -0.0268 -0.6016
14772SOL     OW45509   2.420   1.239   0.326  0.7096 -0.4784 -0.2035
14772SOL    HW145510   2.368   1.171   0.282 -0.3929  0.0461  0.2651
14772SOL    HW245511   2.430   1.208   0.415 -1.2894  0.7352  0.5046
14773SOL     OW45512   6.653   2.538   1.622 -0.4273  0.3201 -0.3778
14773SOL    HW145513   6.634   2.560   1.530  2.0847  0.8205 -0.8541
14773SOL    HW245514   6.720   2.470   1.617 -1.8422 -1.2721  1.1480
14774SOL     OW45515   5.511   4.062   5.546  0.4261  0.3556  0.3176
14774SOL    HW145516   5.443   4.091   5.607 -2.9359 -0.2413 -2.8213
14774SOL    HW245517   5.513   3.967   5.557 -0.2468  0.2381 -0.4857
14775SOL     OW45518   7.989   6.344   5.163  0.3793  0.1647 -0.0852
14775SOL    HW145519   7.913   6.388   5.200  0.0918 -1.0565  0.8432
14775SOL    HW245520   7.972   6.251   5.177  0.9673 -0.2692 -1.9847
14776SOL     OW45521   5.896   1.481   1.010 -0.3050 -0.2392  0.2622
14776SOL    HW145522   5.904   1.474   1.105  0.1778  1.7035  0.4054
14776SOL    HW245523   5.979   1.520   0.982 -0.9078  0.2985 -0.8221
14777SOL     OW45524   0.288   7.103   0.099 -0.5520 -0.2861  0.4808
14777SOL    HW145525   0.230   7.040   0.143 -1.3430  0.4804  0.5700
14777SOL    HW245526   0.268   7.187   0.140  0.6378  0.0059  0.5051
14778SOL     OW45527   4.972   1.578   6.316 -0.2911  0.4336 -0.1654
14778SOL    HW145528   4.968   1.594   6.221 -0.5503  2.0095  0.0892
14778SOL    HW245529   4.910   1.640   6.354 -0.3205 -0.2990  1.0417
14779SOL     OW45530   0.780   5.268   1.536 -0.6923 -0.6143  0.0660
14779SOL    HW145531   0.867   5.231   1.519  0.1739  1.5354 -0.5132
14779SOL    HW245532   0.731   5.195   1.574  1.0089 -2.2094 -0.5835
14780SOL     OW45533   6.021   4.000   6.492 -0.6356  0.2979 -0.1209
14780SOL    HW145534   6.001   3.916   6.450 -1.4596  0.3836  0.0911
14780SOL    HW245535   6.112   3.990   6.522  0.4372  0.6262 -2.8769
14781SOL     OW45536   5.513   4.844   2.053 -0.3006  0.2886 -0.0104
14781SOL    HW145537   5.509   4.902   1.977 -0.4110  0.0735 -0.1715
14781SOL    HW245538   5.456   4.885   2.118  0.5804  1.0003  0.3279
14782SOL     OW45539   0.631   4.939   2.331 -0.3742  0.2440 -0.1239
14782SOL    HW145540   0.712   4.975   2.366  1.0244 -1.3036 -1.6307
14782SOL    HW245541   0.623   4.853   2.372 -1.8119  0.7377  0.7342
14783SOL     OW45542   7.897   8.193   3.600 -0.7223  0.9019 -0.1727
14783SOL    HW145543   7.967   8.130   3.621 -1.3117  0.3465  0.1633
14783SOL    HW245544   7.916   8.220   3.510 -1.4915 -1.1699 -1.0041
14784SOL     OW45545   6.708   2.514   4.297 -0.7857 -0.1289 -0.0368
14784SOL    HW145546   6.714   2.451   4.225  2.0905 -0.2253  0.1596
14784SOL    HW245547   6.795   2.555   4.300 -0.8494  0.0205  3.2306
14785SOL     OW45548   7.002   3.029   8.604 -0.8775 -0.4359 -0.2090
14785SOL    HW145549   7.085   2.981   8.616 -0.5334  0.0192 -0.7528
14785SOL    HW245550   6.996   3.044   8.510 -0.1726  1.9942  0.0847
14786SOL     OW45551   1.341   1.561   8.350 -0.1828 -0.1110 -0.4510
14786SOL    HW145552   1.339   1.520   8.436  0.9820  1.2765  0.2756
14786SOL    HW245553   1.388   1.499   8.294 -0.6845 -0.8845 -0.0350
14787SOL     OW45554   6.167   3.857   3.139  0.6190 -0.5316  0.4585
14787SOL    HW145555   6.191   3.823   3.225  0.8937 -0.5793  0.3635
14787SOL    HW245556   6.129   3.782   3.093  1.7386 -0.8735  0.0475
14788SOL     OW45557   6.001   0.434   5.784  0.4117  0.4589  0.3610
14788SOL    HW145558   5.956   0.380   5.719 -0.1686 -0.7462  1.6982
14788SOL    HW245559   5.962   0.520   5.774  0.9231  0.5284 -1.4173
14789SOL     OW45560   8.254   6.554   7.158 -1.1453  0.2910 -0.3297
14789SOL    HW145561   8.298   6.537   7.075 -3.0630 -0.6360 -1.2252
14789SOL    HW245562   8.301   6.629   7.195  0.0253  0.4652 -2.0392
14790SOL     OW45563   6.144   4.794   3.539 -0.1568 -0.1288  0.0466
14790SOL    HW145564   6.163   4.888   3.528 -0.3518  0.0037  0.8039
14790SOL    HW245565   6.057   4.792   3.578 -0.5644 -0.6653 -0.8420
14791SOL     OW45566   5.267   4.329   5.964 -0.2607  0.0838 -0.0911
14791SOL    HW145567   5.231   4.326   6.053  0.6565  0.5653  0.3074
14791SOL    HW245568   5.240   4.415   5.930  1.1004  0.7873  0.4942
14792SOL     OW45569   7.529   2.522   3.135  0.0383  0.2681 -0.0865
14792SOL    HW145570   7.460   2.515   3.201  0.8670  0.2497  0.7921
14792SOL    HW245571   7.610   2.530   3.185  0.7714 -0.5291 -1.1045
14793SOL     OW45572   6.542   1.240   0.086 -0.3500  0.4165 -0.4481
14793SOL    HW145573   6.546   1.192   0.004 -0.4316 -0.0730 -0.1643
14793SOL    HW245574   6.449   1.254   0.102 -0.3233  0.7998 -0.6003
14794SOL     OW45575   0.916   8.448   2.037 -0.1408  0.1962 -0.2330
14794SOL    HW145576   0.842   8.406   2.081  0.2509 -1.0597 -0.7587
14794SOL    HW245577   0.932   8.528   2.089 -0.2041 -0.8288  1.4386
14795SOL     OW45578   6.360   7.195   2.132  0.2190 -0.1869 -0.5160
14795SOL    HW145579   6.386   7.174   2.042  2.1637 -0.3608  0.0362
14795SOL    HW245580   6.326   7.112   2.167  1.2254 -0.6188 -0.5267
14796SOL     OW45581   0.974   5.774   6.707  0.1184 -0.4915  0.0247
14796SOL    HW145582   1.067   5.785   6.725 -0.0586  1.4285 -0.0235
14796SOL    HW245583   0.963   5.802   6.616 -0.5636 -0.1982  0.1870
14797SOL     OW45584   4.944   6.949   2.788 -1.0724  0.1789 -0.9727
14797SOL    HW145585   5.036   6.977   2.782 -0.6014 -0.7255  1.1590
14797SOL    HW245586   4.896   7.029   2.808 -0.3084  0.1956  0.9340
14798SOL     OW45587   4.666   1.931   0.984  0.0810  0.8283  0.1291
14798SOL    HW145588   4.701   1.914   1.072  0.9132  0.7092 -0.2176
14798SOL    HW245589   4.575   1.956   0.999 -0.3316 -0.9389  0.9066
14799SOL     OW45590   0.419   6.452   7.520  0.1487  0.0141  0.1034
14799SOL    HW145591   0.344   6.394   7.513 -0.1876  0.1101  2.1567
14799SOL    HW245592   0.464   6.445   7.436 -1.1521 -1.4294 -0.5060
14800SOL     OW45593   3.370   7.784   3.618 -0.2516  0.0349 -0.0927
14800SOL    HW145594   3.465   7.788   3.604 -0.0756 -0.5928  0.8349
14800SOL    HW245595   3.357   7.819   3.706 -1.0078  1.1195 -0.6263
14801SOL     OW45596   0.923   3.615   7.579 -0.2024 -0.1222  0.0320
14801SOL    HW145597   1.004   3.626   7.630  0.1931  2.4921 -0.9697
14801SOL    HW245598   0.866   3.564   7.636  1.8072 -1.2422  1.1653
14802SOL     OW45599   4.968   6.731   1.219  0.4930 -0.5191  0.1313
14802SOL    HW145600   4.948   6.724   1.126  1.4150 -1.7317  0.0002
14802SOL    HW245601   5.031   6.661   1.235  1.3559  0.5166  1.4026
14803SOL     OW45602   2.258   3.890   2.074  0.0400 -0.7977 -0.2668
14803SOL    HW145603   2.182   3.948   2.068  2.0685  2.0343 -0.3993
14803SOL    HW245604   2.302   3.899   1.989  1.5541 -0.8473  0.4856
14804SOL     OW45605   4.670   3.455   7.876 -0.3757 -0.6377 -0.4728
14804SOL    HW145606   4.628   3.437   7.960 -0.0948  0.4832 -0.0856
14804SOL    HW245607   4.732   3.383   7.865  0.4801 -0.1514  0.8853
14805SOL     OW45608   3.536   7.217   4.931 -0.1384 -0.0482 -0.1549
14805SOL    HW145609   3.522   7.294   4.987 -1.0662  0.3888 -0.9736
14805SOL    HW245610   3.512   7.246   4.843  1.0746 -0.8062 -0.7604
14806SOL     OW45611   4.318   3.321   0.815 -0.3639 -0.3806 -0.1925
14806SOL    HW145612   4.252   3.253   0.803 -0.6409  0.0507 -1.1903
14806SOL    HW245613   4.330   3.326   0.910 -3.3851  1.0503  0.2431
14807SOL     OW45614   0.235   4.039   2.774 -0.0934  0.3342 -0.1935
14807SOL    HW145615   0.291   3.996   2.709  0.7084  0.6387  0.2819
14807SOL    HW245616   0.219   4.126   2.738 -1.1468 -0.0983 -0.8267
14808SOL     OW45617   8.409   7.356   1.498 -0.4068 -0.6355  0.4141
14808SOL    HW145618   8.335   7.401   1.457 -0.0782  0.6947  1.1899
14808SOL    HW245619   8.471   7.341   1.426 -0.4117  0.4551  0.1530
14809SOL     OW45620   0.804   6.189   2.415  0.1763 -0.2226  0.1347
14809SOL    HW145621   0.808   6.095   2.400  0.1180 -0.0075 -1.4815
14809SOL    HW245622   0.714   6.205   2.445 -0.7939 -0.3879 -2.4021
14810SOL     OW45623   3.795   2.866   4.384 -0.1005  0.1068  0.0214
14810SOL    HW145624   3.734   2.931   4.418 -2.7175 -1.9814 -0.3012
14810SOL    HW245625   3.862   2.857   4.452 -1.6316  0.6270  1.6611
14811SOL     OW45626   7.759   1.391   5.900 -0.4707 -0.2066  0.1873
14811SOL    HW145627   7.677   1.371   5.855 -0.1302 -1.6863  0.1750
14811SOL    HW245628   7.736   1.391   5.993 -1.0472  2.2477  0.1091
14812SOL     OW45629   3.026   3.570   3.372  0.1413 -0.7121  0.4460
14812SOL    HW145630   2.993   3.600   3.287  0.9746  0.1376  0.4035
14812SOL    HW245631   3.015   3.475   3.370  0.3124 -0.7242 -0.6848
14813SOL     OW45632   3.603   1.562   6.138 -0.4525  0.1441  0.0273
14813SOL    HW145633   3.611   1.510   6.218 -0.7373 -0.2995 -0.2313
14813SOL    HW245634   3.656   1.640   6.155  0.2499 -0.3807  0.2923
14814SOL     OW45635   0.336   3.133   1.376  0.3690 -0.4865  0.1161
14814SOL    HW145636   0.256   3.135   1.324  1.2859  2.7200 -1.4153
14814SOL    HW245637   0.406   3.116   1.313  1.2601  1.0628  0.6262
14815SOL     OW45638   1.659   0.532   2.007 -0.1325  0.0477 -0.1018
14815SOL    HW145639   1.672   0.596   1.938 -0.7180 -0.1349 -0.3920
14815SOL    HW245640   1.746   0.499   2.027  0.1226  0.6407 -0.2314
14816SOL     OW45641   7.481   2.546   8.501  0.1410 -0.8096 -0.3802
14816SOL    HW145642   7.463   2.505   8.585 -0.7602 -0.0144 -0.1628
14816SOL    HW245643   7.576   2.552   8.496  0.1909 -0.3312  0.8497
14817SOL     OW45644   5.408   6.924   2.002  0.2316 -0.1062 -0.6763
14817SOL    HW145645   5.335   6.927   1.940 -1.1120 -1.1234  0.7700
14817SOL    HW245646   5.445   7.012   2.001 -0.6431  0.2641 -1.8719
14818SOL     OW45647   4.100   5.343   5.008  0.3191 -0.0555 -0.0031
14818SOL    HW145648   4.164   5.380   5.068 -0.7191 -0.3228  1.3016
14818SOL    HW245649   4.121   5.384   4.923  1.8839  0.2216  0.4839
14819SOL     OW45650   7.272   7.442   1.043 -0.7396 -0.4696  0.1857
14819SOL    HW145651   7.235   7.370   1.095  0.5774 -2.0450 -0.9470
14819SOL    HW245652   7.235   7.430   0.956  0.3834 -0.4970 -0.2985
14820SOL     OW45653   2.864   8.377   0.226 -0.5540  0.1060 -0.0833
14820SOL    HW145654   2.824   8.462   0.210  4.2071  2.7931  0.4945
14820SOL    HW245655   2.857   8.364   0.321  0.5090  0.9532  0.1256
14821SOL     OW45656   0.783   6.724   2.566  0.1276 -0.2086 -0.0694
14821SOL    HW145657   0.692   6.701   2.552  0.5070 -1.2583 -0.9195
14821SOL    HW245658   0.821   6.731   2.479  1.4804 -2.5029  0.2383
14822SOL     OW45659   3.171   3.109   4.928 -0.3262  0.2957 -0.0746
14822SOL    HW145660   3.147   3.199   4.951  1.3073  0.6621  0.2963
14822SOL    HW245661   3.169   3.062   5.011 -2.7419 -0.4555 -0.4693
14823SOL     OW45662   1.447   0.081   2.863 -0.5182 -0.5435  0.3088
14823SOL    HW145663   1.385   0.094   2.935  1.4374 -2.3481  2.5064
14823SOL    HW245664   1.500   0.160   2.863 -3.2912  1.5466 -2.3451
14824SOL     OW45665   2.026   2.910   1.062 -0.1990 -0.1802 -0.0215
14824SOL    HW145666   2.005   2.931   1.153 -2.0394  0.3995 -0.5532
14824SOL    HW245667   2.018   2.815   1.057  0.5761 -0.2901  0.5576
14825SOL     OW45668   6.319   2.138   6.900 -0.1544  0.8143 -0.4742
14825SOL    HW145669   6.260   2.205   6.865 -1.2095 -1.1845 -2.7996
14825SOL    HW245670   6.399   2.146   6.848 -0.5191 -0.1001 -1.1943
14826SOL     OW45671   0.652   7.443   7.607 -0.3028 -0.2501  0.1231
14826SOL    HW145672   0.590   7.420   7.676 -2.3368  0.6268 -1.2948
14826SOL    HW245673   0.607   7.510   7.555  0.6941 -1.5383 -2.6211
14827SOL     OW45674   2.421   8.530   3.353 -0.2335 -0.5350 -0.3612
14827SOL    HW145675   2.464   8.466   3.297 -1.2662 -0.6016 -1.0973
14827SOL    HW245676   2.380   8.592   3.292 -0.2831  0.1368  0.3341
14828SOL     OW45677   4.973   7.844   4.090 -0.2674 -0.4370  0.0818
14828SOL    HW145678   4.913   7.770   4.086 -0.9639  0.1252 -0.1894
14828SOL    HW245679   4.990   7.857   4.183 -1.1506 -0.1456  0.2060
14829SOL     OW45680   4.328   4.946   5.627  0.6206 -0.0784 -0.1618
14829SOL    HW145681   4.403   4.912   5.677  0.0015 -1.1648  0.0609
14829SOL    HW245682   4.261   4.878   5.634 -0.1139  0.5225 -1.0264
14830SOL     OW45683   0.183   4.704   7.411 -0.2890 -0.4850  0.3455
14830SOL    HW145684   0.273   4.695   7.381 -0.5491  1.3439 -1.1774
14830SOL    HW245685   0.182   4.786   7.460 -0.8471 -1.2227  1.6189
14831SOL     OW45686   4.945   4.535   5.499  0.2403  0.1521 -0.0785
14831SOL    HW145687   4.904   4.535   5.412 -0.8894  0.1861  0.4319
14831SOL    HW245688   4.983   4.447   5.508 -0.6249 -0.2428 -0.1735
14832SOL     OW45689   0.953   3.256   8.530  0.0676  0.0400  0.2875
14832SOL    HW145690   0.981   3.223   8.615  0.4934  1.6633  0.8150
14832SOL    HW245691   1.016   3.326   8.510 -1.2306  1.0705 -0.3726
14833SOL     OW45692   3.233   0.855   5.221  0.2934 -0.2498 -0.6453
14833SOL    HW145693   3.228   0.945   5.188 -0.6621  0.8810  2.2580
14833SOL    HW245694   3.324   0.843   5.245  0.5741 -0.3649 -1.7010
14834SOL     OW45695   2.801   5.825   0.665 -0.9223  0.4185  0.0808
14834SOL    HW145696   2.889   5.849   0.638 -0.6138  0.8284  1.3891
14834SOL    HW245697   2.805   5.731   0.680 -0.0574  0.7480  2.3181
14835SOL     OW45698   1.995   0.904   0.167  0.3470 -0.5540 -0.1296
14835SOL    HW145699   1.956   0.947   0.243  0.6354 -0.5611  0.0230
14835SOL    HW245700   1.964   0.956   0.092  2.0716  0.9996  0.1655
14836SOL     OW45701   4.456   7.228   5.148  0.7010  0.2952  0.2623
14836SOL    HW145702   4.380   7.229   5.207 -0.0769 -0.9521 -0.6681
14836SOL    HW245703   4.531   7.236   5.207 -0.1360  1.9939  1.1709
14837SOL     OW45704   4.565   1.691   4.082  0.1996 -0.4880  0.2160
14837SOL    HW145705   4.592   1.701   4.174 -0.8319  0.8630  0.4107
14837SOL    HW245706   4.475   1.725   4.080  0.2667 -0.3489 -1.3306
14838SOL     OW45707   2.733   2.657   5.274 -0.5564 -0.2966  0.5665
14838SOL    HW145708   2.659   2.604   5.244 -0.4247 -0.4601  0.5273
14838SOL    HW245709   2.766   2.699   5.194 -0.2980 -0.6157  0.5020
14839SOL     OW45710   4.548   3.384   5.939 -0.2343  0.3811  0.3951
14839SOL    HW145711   4.618   3.329   5.905 -0.8269  0.0699 -0.3454
14839SOL    HW245712   4.529   3.348   6.026  0.9836  0.9113  0.9072
14840SOL     OW45713   1.363   3.057   6.431  0.0873 -0.0832 -0.6037
14840SOL    HW145714   1.450   3.022   6.410  0.9031  1.2276  0.4795
14840SOL    HW245715   1.380   3.137   6.480 -1.7431 -0.1127  0.1609
14841SOL     OW45716   5.859   1.187   4.303 -0.2220 -0.2684  0.1854
14841SOL    HW145717   5.909   1.163   4.224 -0.9757 -1.4007  0.0218
14841SOL    HW245718   5.882   1.119   4.367 -0.9097 -0.3275  0.3801
14842SOL     OW45719   0.064   5.225   5.337  0.7115  0.0169 -0.3908
14842SOL    HW145720   0.041   5.154   5.277  0.0567 -0.8900  0.8713
14842SOL    HW245721  -0.020   5.256   5.371  0.8994  2.1046 -1.6300
14843SOL     OW45722   0.231   3.430   0.598  0.4887  0.4349  0.0130
14843SOL    HW145723   0.145   3.411   0.560  0.5735  0.4824 -0.2019
14843SOL    HW245724   0.224   3.518   0.634  0.2187  0.1617  0.6534
14844SOL     OW45725   2.290   2.720   2.029 -0.2224  0.0891  0.1540
14844SOL    HW145726   2.283   2.737   1.935 -1.2803  0.5379  0.3092
14844SOL    HW245727   2.227   2.779   2.070 -3.3425 -3.3116  0.8081
14845SOL     OW45728   7.868   8.584   4.478  0.0937  0.4216 -0.3263
14845SOL    HW145729   7.892   8.639   4.404 -0.5038  1.6231  0.3493
14845SOL    HW245730   7.935   8.601   4.544 -1.0084  1.6748  0.5209
14846SOL     OW45731   7.728   2.120   5.173  0.1001 -0.4794 -0.4531
14846SOL    HW145732   7.821   2.124   5.151 -0.0279  0.2222 -0.9010
14846SOL    HW245733   7.720   2.172   5.253  0.0530 -0.3100 -0.5670
14847SOL     OW45734   5.034   8.237   4.605  0.5879 -0.0268  0.3737
14847SOL    HW145735   5.059   8.328   4.587 -1.7380  0.3548 -1.6185
14847SOL    HW245736   5.072   8.187   4.532 -0.0349 -0.2564  0.1991
14848SOL     OW45737   3.518   3.341   3.896 -0.4145  0.3935  0.0779
14848SOL    HW145738   3.526   3.256   3.939 -0.7948 -1.2488 -2.8172
14848SOL    HW245739   3.607   3.361   3.867 -0.5994  0.0961 -0.7246
14849SOL     OW45740   4.267   3.355   4.607 -0.3635  0.0789  0.0024
14849SOL    HW145741   4.235   3.268   4.581 -1.3468  0.3595  0.2544
14849SOL    HW245742   4.230   3.369   4.694  1.9528 -0.3651  1.1379
14850SOL     OW45743   5.520   4.365   3.540 -0.0868 -0.6438  0.2940
14850SOL    HW145744   5.499   4.274   3.560  0.6542 -0.8446  0.1637
14850SOL    HW245745   5.434   4.408   3.535 -0.3859 -1.0369  1.7180
14851SOL     OW45746   4.712   7.628   4.396  0.1032 -0.2113  0.1094
14851SOL    HW145747   4.655   7.687   4.347  0.3287 -0.1568 -0.0868
14851SOL    HW245748   4.727   7.673   4.479 -1.4450 -0.9406  0.8316
14852SOL     OW45749   3.408   4.399   8.165  0.0901  0.2355 -0.0656
14852SOL    HW145750   3.486   4.351   8.139  0.1075  0.3687 -0.2650
14852SOL    HW245751   3.413   4.404   8.261 -2.0868 -3.9119  0.4702
14853SOL     OW45752   2.736   6.764   3.783 -0.2068 -0.1034  0.3058
14853SOL    HW145753   2.730   6.818   3.862 -0.2531 -0.1130  0.3089
14853SOL    HW245754   2.645   6.756   3.752 -0.6546 -2.6477  1.9619
14854SOL     OW45755   1.020   0.598   6.586 -0.0881  0.3761 -0.1230
14854SOL    HW145756   0.994   0.560   6.670  0.1697 -0.8590 -0.5835
14854SOL    HW245757   0.950   0.660   6.565 -0.1883  0.6569  0.9569
14855SOL     OW45758   5.719   4.301   7.664 -0.4850  0.2927  0.2149
14855SOL    HW145759   5.631   4.273   7.638 -0.7914 -0.4239  1.8763
14855SOL    HW245760   5.741   4.243   7.738  1.4716  0.3141 -0.3077
14856SOL     OW45761   1.586   8.150   3.806  0.1602  0.2294  0.0029
14856SOL    HW145762   1.504   8.179   3.766  1.6834  1.9093 -2.1028
14856SOL    HW245763   1.568   8.060   3.834 -1.8798 -0.0942 -2.0063
14857SOL     OW45764   2.449   0.251   2.577 -0.0983 -0.7261  0.3953
14857SOL    HW145765   2.365   0.217   2.546  0.5616 -0.8020 -1.4397
14857SOL    HW245766   2.430   0.340   2.606 -0.8583 -0.8458  0.2842
14858SOL     OW45767   1.009   7.984   2.116 -0.4036 -0.2057 -0.6622
14858SOL    HW145768   0.962   7.937   2.186  0.4361  0.2657  0.2433
14858SOL    HW245769   1.043   8.063   2.159  1.1802 -0.5111 -1.2849
14859SOL     OW45770   8.169   5.024   5.553 -0.2166 -0.3884  0.8370
14859SOL    HW145771   8.159   4.943   5.502  1.3307 -1.4471  2.1345
14859SOL    HW245772   8.227   5.001   5.625 -1.8007  1.2152  2.7736
14860SOL     OW45773   8.286   7.243   1.142  0.2981 -0.0750 -0.4578
14860SOL    HW145774   8.320   7.153   1.139  0.2519 -0.0919 -0.4676
14860SOL    HW245775   8.226   7.244   1.216  1.4331  0.3361  0.5006
14861SOL     OW45776   0.796   3.834   7.485 -0.4372 -0.5552 -0.1811
14861SOL    HW145777   0.844   3.758   7.518  0.4712  0.1244  0.0696
14861SOL    HW245778   0.710   3.798   7.460 -0.2560 -1.5447  0.5438
14862SOL     OW45779   1.125   7.171   1.530  0.5167  0.5966 -0.4004
14862SOL    HW145780   1.074   7.190   1.609  2.9391  0.3050  1.3618
14862SOL    HW245781   1.063   7.183   1.458 -1.5342  1.9662  1.4432
14863SOL     OW45782   4.744   6.694   7.325 -0.1588  0.0290  0.0545
14863SOL    HW145783   4.825   6.654   7.294 -0.5013 -0.0445 -0.7979
14863SOL    HW245784   4.764   6.787   7.336  0.1813 -0.0815  0.3813
14864SOL     OW45785   8.179   4.794   1.820  0.5116  0.1733 -0.4998
14864SOL    HW145786   8.266   4.756   1.827  0.6278  0.6876  1.7013
14864SOL    HW245787   8.187   4.860   1.751  1.0452 -1.7025 -2.3369
14865SOL     OW45788   7.106   4.926   5.720 -0.0934  0.0042  1.1525
14865SOL    HW145789   7.092   4.936   5.625 -0.4779  2.0593  1.3879
14865SOL    HW245790   7.132   4.835   5.730  0.0886 -0.2331 -0.9543
14866SOL     OW45791   2.839   4.255   3.943  0.1435 -0.4454  0.3739
14866SOL    HW145792   2.775   4.290   3.881 -1.2040 -1.1724  1.3024
14866SOL    HW245793   2.794   4.257   4.028  0.5974 -2.8087  0.7341
14867SOL     OW45794   2.954   4.901   0.210  0.8611 -0.6093 -0.2408
14867SOL    HW145795   2.973   4.812   0.239  2.0235 -0.5608 -0.7968
14867SOL    HW245796   2.859   4.910   0.219  0.8932 -1.3911  1.2463
14868SOL     OW45797   0.664   5.916   0.332  0.3895  0.2983  0.1957
14868SOL    HW145798   0.654   5.834   0.380 -0.0017 -0.1739 -0.6698
14868SOL    HW245799   0.711   5.892   0.252 -1.2149  0.5666 -0.8921
14869SOL     OW45800   6.605   4.826   8.219  0.0595 -0.3176  0.4183
14869SOL    HW145801   6.527   4.817   8.274  0.1734 -0.6401  0.5335
14869SOL    HW245802   6.611   4.919   8.200 -0.9519 -0.4255 -0.4674
14870SOL     OW45803   4.569   7.204   7.044  0.6858 -0.3232  0.4649
14870SOL    HW145804   4.580   7.121   6.998 -0.0205  1.2772 -2.9000
14870SOL    HW245805   4.491   7.193   7.097  0.1760 -1.5828 -0.5084
14871SOL     OW45806   0.662   2.076   7.985  0.6844 -0.1405 -0.2351
14871SOL    HW145807   0.733   2.057   8.047  0.1965  0.8521  0.6663
14871SOL    HW245808   0.641   1.992   7.945  1.1783 -0.7648  0.7728
14872SOL     OW45809   1.057   4.383   3.162 -0.2433  0.4528  0.2485
14872SOL    HW145810   1.117   4.458   3.158 -0.6987  0.8820  1.0542
14872SOL    HW245811   1.112   4.310   3.192 -0.1706  0.9190  1.2959
14873SOL     OW45812   5.786   0.996   5.818  0.0467  0.2129 -0.3129
14873SOL    HW145813   5.706   0.954   5.849  2.0738 -3.5472  0.3630
14873SOL    HW245814   5.807   1.061   5.885 -1.2429 -0.3262  0.6489
14874SOL     OW45815   1.008   1.439   7.774  0.2041 -0.0789  0.3858
14874SOL    HW145816   0.914   1.456   7.768  0.3980  0.6657 -1.0978
14874SOL    HW245817   1.047   1.526   7.785  0.7140 -0.4057  1.2383
14875SOL     OW45818   3.280   2.491   2.694 -0.6788 -0.2973 -0.0514
14875SOL    HW145819   3.248   2.407   2.662  0.9553 -0.3925 -1.6114
14875SOL    HW245820   3.294   2.543   2.614 -1.2660  1.3326  0.8511
14876SOL     OW45821   6.326   5.340   0.556  0.0332  0.2053 -0.1920
14876SOL    HW145822   6.351   5.349   0.648  0.2372  1.6623 -0.3762
14876SOL    HW245823   6.230   5.335   0.558  0.1016 -2.6420  0.2885
14877SOL     OW45824   5.030   1.083   1.942 -0.4506 -0.1794 -0.4007
14877SOL    HW145825   5.033   0.992   1.972 -0.6201 -0.4415 -1.1673
14877SOL    HW245826   4.968   1.126   2.003 -0.4852 -0.6056 -0.1315
14878SOL     OW45827   3.589   2.245   7.177  0.2179  0.1025 -0.4224
14878SOL    HW145828   3.638   2.296   7.241  0.7174 -1.0383  0.1382
14878SOL    HW245829   3.500   2.281   7.182  0.7342  1.4850 -0.6915
14879SOL     OW45830   8.375   2.262   5.767  0.8981  0.2338  0.2241
14879SOL    HW145831   8.434   2.310   5.825  0.7654 -0.2652  0.7784
14879SOL    HW245832   8.427   2.189   5.734  0.4898 -0.4194  1.0033
14880SOL     OW45833   7.642   8.198   4.117 -0.6575 -0.6885 -0.3272
14880SOL    HW145834   7.738   8.194   4.112 -0.5243  1.9711 -1.8586
14880SOL    HW245835   7.614   8.194   4.026 -2.2121 -3.3935  0.1853
14881SOL     OW45836   5.261   5.749   5.804  0.0573 -0.3168 -0.4681
14881SOL    HW145837   5.347   5.712   5.786  0.9324  0.8853  1.0397
14881SOL    HW245838   5.211   5.732   5.724  1.2995 -2.0861 -0.9360
14882SOL     OW45839   6.468   5.382   2.269 -0.5100  0.6492  0.4247
14882SOL    HW145840   6.431   5.325   2.336  0.1542  1.2941  1.3749
14882SOL    HW245841   6.489   5.463   2.315  2.7859  0.0847  0.1963
14883SOL     OW45842   4.710   4.019   5.079 -0.0894  0.2203  0.5132
14883SOL    HW145843   4.663   4.057   5.153 -1.0552 -1.3931  0.7828
14883SOL    HW245844   4.768   3.954   5.118 -0.2733 -0.3206 -0.0924
14884SOL     OW45845   0.002   6.714   4.861  0.1377  0.2915 -0.1956
14884SOL    HW145846  -0.053   6.789   4.883  0.6815  0.7707 -0.4582
14884SOL    HW245847   0.090   6.741   4.884  0.1739 -0.8078  1.0485
14885SOL     OW45848   7.492   4.802   7.118 -0.3313 -0.0568  0.0892
14885SOL    HW145849   7.489   4.850   7.036 -0.3860 -0.1355  0.0446
14885SOL    HW245850   7.402   4.772   7.132 -0.4736  0.5557  0.5376
14886SOL     OW45851   7.965   3.922   7.045 -0.2844  0.2307  0.1831
14886SOL    HW145852   8.048   3.873   7.042 -0.7640 -0.6045  0.1631
14886SOL    HW245853   7.987   4.004   7.089  0.4423 -0.2252  0.6954
14887SOL     OW45854   1.902   5.111   7.787  0.2580 -0.3080 -0.0494
14887SOL    HW145855   1.993   5.112   7.755  1.0398  1.1194  1.9718
14887SOL    HW245856   1.867   5.196   7.762  0.2330  0.0244  1.0481
14888SOL     OW45857   5.347   4.082   0.873  0.0930  0.3411 -0.5334
14888SOL    HW145858   5.338   4.138   0.795  0.4411  1.6578  0.3283
14888SOL    HW245859   5.389   4.139   0.937  0.1563 -0.8449  0.4964
14889SOL     OW45860   7.355   7.101   7.769  0.0131  0.1887 -0.1891
14889SOL    HW145861   7.278   7.137   7.725 -0.9876 -1.6783 -0.0813
14889SOL    HW245862   7.429   7.132   7.717 -0.9933 -0.1672 -1.9118
14890SOL     OW45863   7.030   1.176   7.518 -0.0732  0.0190  0.2488
14890SOL    HW145864   7.034   1.095   7.469 -0.5006 -0.1189  0.4323
14890SOL    HW245865   7.089   1.163   7.592 -1.8747 -1.0387  1.5851
14891SOL     OW45866   3.614   0.061   6.948  0.5852  0.2668  0.1732
14891SOL    HW145867   3.658   0.146   6.960  4.3632 -1.2253 -1.3870
14891SOL    HW245868   3.668   0.000   6.998 -1.7946 -1.3681  0.9116
14892SOL     OW45869   5.144   2.310   6.359 -0.0359  0.0322  0.3041
14892SOL    HW145870   5.127   2.280   6.270  1.0448  0.4344 -0.0447
14892SOL    HW245871   5.228   2.271   6.383 -0.7163 -0.7739  1.4774
14893SOL     OW45872   5.059   5.312   0.859  0.1439  0.4523 -0.0818
14893SOL    HW145873   5.033   5.281   0.772 -0.2016 -0.5839  0.3738
14893SOL    HW245874   4.985   5.365   0.889 -2.7550 -4.1253  2.0698
14894SOL     OW45875   5.388   3.799   1.531  0.6476 -0.5700  0.2599
14894SOL    HW145876   5.428   3.873   1.486  2.3645 -0.9216  1.1112
14894SOL    HW245877   5.405   3.724   1.474 -0.5403 -0.4374 -0.2993
14895SOL     OW45878   1.678   5.380   6.134  0.0498 -0.3410  0.1135
14895SOL    HW145879   1.702   5.471   6.116 -0.4945 -0.2458 -0.1663
14895SOL    HW245880   1.590   5.386   6.171 -1.1382 -0.8991 -2.3940
14896SOL     OW45881   5.641   1.487   4.521 -0.1228  0.0534  0.2491
14896SOL    HW145882   5.555   1.521   4.547 -0.4347 -0.1032 -0.5418
14896SOL    HW245883   5.701   1.521   4.587 -1.0845 -1.5104  1.9998
14897SOL     OW45884   3.056   3.731   5.892  0.2547 -0.4325 -0.6531
14897SOL    HW145885   3.100   3.815   5.879 -3.2009  1.9490  1.4228
14897SOL    HW245886   3.008   3.716   5.811  0.8104 -0.3463 -0.9988
14898SOL     OW45887   8.405   6.856   7.948  0.9117  0.3268  0.3188
14898SOL    HW145888   8.362   6.892   7.870 -1.9609 -0.4880  1.4085
14898SOL    HW245889   8.460   6.785   7.914  0.1097  0.3089 -1.0301
14899SOL     OW45890   8.396   4.022   6.617  0.4299 -0.8630 -0.2096
14899SOL    HW145891   8.314   3.974   6.609 -1.2107  1.3424  1.9471
14899SOL    HW245892   8.378   4.108   6.578  1.5517 -0.1760  0.7033
14900SOL     OW45893   5.335   1.224   2.892  0.5600 -0.1930  0.3300
14900SOL    HW145894   5.425   1.191   2.890  0.8284  0.5444 -0.5169
14900SOL    HW245895   5.312   1.235   2.800 -0.1391  0.3235  0.5612
14901SOL     OW45896   1.373   1.549   4.567  0.1065  0.6580  0.0391
14901SOL    HW145897   1.317   1.502   4.504  0.5704  0.7972 -0.4848
14901SOL    HW245898   1.407   1.480   4.624 -0.5253  0.5607  0.3007
14902SOL     OW45899   2.008   7.588   7.198 -0.4768  0.5792  0.1419
14902SOL    HW145900   2.083   7.607   7.254 -0.4057  0.1693  0.1943
14902SOL    HW245901   1.970   7.673   7.177  1.2018  0.9545 -1.5778
14903SOL     OW45902   3.914   0.193   2.047  0.0271 -0.6589  0.0439
14903SOL    HW145903   3.995   0.210   2.094 -0.0585  0.2877 -0.1301
14903SOL    HW245904   3.875   0.280   2.033 -1.4867 -1.1429  0.9557
14904SOL     OW45905   0.479   1.222   1.795  0.3728 -0.2464  0.6760
14904SOL    HW145906   0.421   1.297   1.808  1.6151  1.0156 -0.6044
14904SOL    HW245907   0.566   1.255   1.818  0.9337 -1.3288  0.1903
14905SOL     OW45908   6.302   0.187   2.878 -0.2257  0.4317  0.2449
14905SOL    HW145909   6.340   0.230   2.955 -0.8876  1.0226  0.2479
14905SOL    HW245910   6.250   0.115   2.914 -0.0509  0.3379  0.3112
14906SOL     OW45911   0.842   1.852   3.446 -0.3494 -0.2035 -0.2218
14906SOL    HW145912   0.904   1.925   3.449  0.5448 -0.9384 -0.4462
14906SOL    HW245913   0.870   1.799   3.372 -1.7467 -0.1439 -0.8387
14907SOL     OW45914   3.105   0.771   1.560  0.3974 -0.1969  0.3231
14907SOL    HW145915   3.121   0.727   1.643  0.4194  0.8802  0.8994
14907SOL    HW245916   3.093   0.699   1.497  1.8839 -1.0296  0.9386
14908SOL     OW45917   7.471   2.013   2.880 -0.9754  0.8472 -0.6704
14908SOL    HW145918   7.496   1.999   2.789 -1.3677  0.5758 -0.7422
14908SOL    HW245919   7.550   1.994   2.931 -0.9050  0.4694 -0.9184
14909SOL     OW45920   1.345   2.778   7.757  0.6850 -0.4924  0.1500
14909SOL    HW145921   1.412   2.789   7.824  1.4982  0.7042 -0.8060
14909SOL    HW245922   1.264   2.808   7.798  1.4460  1.7418  0.1587
14910SOL     OW45923   1.386   1.528   2.415  0.0812 -0.0336 -0.2395
14910SOL    HW145924   1.351   1.616   2.401  0.6981  0.1556 -0.6040
14910SOL    HW245925   1.453   1.518   2.348 -0.3543 -0.9904 -0.5448
14911SOL     OW45926   2.422   7.082   4.859  0.0155  0.2033  0.4086
14911SOL    HW145927   2.332   7.051   4.868 -0.0752  0.2331 -0.3149
14911SOL    HW245928   2.420   7.171   4.894 -1.1395  1.6540 -2.8984
14912SOL     OW45929   3.596   2.767   2.455  0.4006 -0.7872 -0.4743
14912SOL    HW145930   3.630   2.793   2.541  0.4131 -0.4856 -0.5682
14912SOL    HW245931   3.599   2.848   2.403  0.9324 -1.0945 -0.9328
14913SOL     OW45932   0.236   5.633   2.808 -0.4844 -0.1821  0.5095
14913SOL    HW145933   0.177   5.570   2.850 -0.2222  1.1336  3.0137
14913SOL    HW245934   0.178   5.694   2.763 -0.8499 -0.7975  0.1348
14914SOL     OW45935   7.656   4.331   4.745 -0.6915 -0.0723 -0.4322
14914SOL    HW145936   7.605   4.401   4.705  1.9093  1.0277 -2.0657
14914SOL    HW245937   7.665   4.266   4.675  1.6202  0.6242 -0.8749
14915SOL     OW45938   4.560   5.621   4.371 -0.5569 -0.1971 -0.0014
14915SOL    HW145939   4.473   5.628   4.332  0.1694 -0.9886 -1.8835
14915SOL    HW245940   4.591   5.534   4.344  1.3477  0.6131 -0.5516
14916SOL     OW45941   8.539   4.185   1.375 -0.3987  0.2425  0.1254
14916SOL    HW145942   8.536   4.159   1.283 -1.4250  0.7158  0.0119
14916SOL    HW245943   8.632   4.199   1.392 -0.1122 -0.6422 -0.6059
14917SOL     OW45944   5.055   4.696   3.907  0.2044 -0.1359 -0.0653
14917SOL    HW145945   4.965   4.678   3.937  0.1485 -0.8304 -0.6070
14917SOL    HW245946   5.043   4.734   3.820  0.4109  0.7264  0.2696
14918SOL     OW45947   3.947   1.189   0.779  0.6035  0.2623  0.8742
14918SOL    HW145948   3.867   1.218   0.823 -0.5871  1.7755 -1.9839
14918SOL    HW245949   4.006   1.264   0.785  1.0258 -0.0960  1.2212
14919SOL     OW45950   7.297   4.220   6.460  0.1959 -0.1716  0.1074
14919SOL    HW145951   7.374   4.186   6.415 -0.8756 -0.2201 -1.7883
14919SOL    HW245952   7.265   4.290   6.403  0.2393  1.5899  2.0964
14920SOL     OW45953   7.211   4.134   0.229  0.5535 -0.2186 -0.3434
14920SOL    HW145954   7.196   4.189   0.306  0.0469 -2.4428  1.2535
14920SOL    HW245955   7.303   4.108   0.234  0.9594  0.9140 -1.4356
14921SOL     OW45956   3.403   2.032   2.832 -0.1915 -0.2751  0.1435
14921SOL    HW145957   3.420   2.110   2.884  1.7602 -0.7593  0.3147
14921SOL    HW245958   3.473   2.031   2.766  0.1428 -2.1178  0.4653
14922SOL     OW45959   0.689   4.977   5.585  0.2594  0.3531 -0.0359
14922SOL    HW145960   0.722   4.899   5.630 -2.4063  0.1190  1.7396
14922SOL    HW245961   0.747   5.047   5.614  0.1027 -0.2500  1.8918
14923SOL     OW45962   3.668   2.099   1.789  0.4958 -0.1545  0.1808
14923SOL    HW145963   3.655   2.173   1.849 -1.3776  0.1512 -0.5607
14923SOL    HW245964   3.639   2.023   1.839  1.8646 -0.3451  0.7306
14924SOL     OW45965   4.961   2.971   0.284 -0.1349 -0.0572 -0.1657
14924SOL    HW145966   5.036   2.932   0.328  0.7109  1.4089 -0.2107
14924SOL    HW245967   4.991   2.984   0.194 -1.5709 -2.3131 -1.0203
14925SOL     OW45968   1.755   6.763   3.443 -0.5665  0.6314 -0.2167
14925SOL    HW145969   1.712   6.689   3.401 -1.1010  1.6302 -1.5066
14925SOL    HW245970   1.754   6.742   3.537  1.6002 -2.1562 -0.6972
14926SOL     OW45971   4.957   6.098   8.004  0.3830 -0.2028  0.2398
14926SOL    HW145972   5.005   6.178   7.984  0.9934 -0.3508  1.0771
14926SOL    HW245973   4.877   6.128   8.048 -1.4841  0.2102 -3.0433
14927SOL     OW45974   7.737   0.429   3.307  0.2946  0.1220  0.4995
14927SOL    HW145975   7.705   0.485   3.237  0.1737  2.4218  2.2532
14927SOL    HW245976   7.668   0.363   3.319  0.8039 -1.0066 -2.1422
14928SOL     OW45977   6.893   3.545   7.362  0.0121 -0.6770 -0.1560
14928SOL    HW145978   6.908   3.628   7.316  1.5150 -0.7581  0.1148
14928SOL    HW245979   6.853   3.488   7.296  1.7312 -0.6556 -1.3038
14929SOL     OW45980   3.803   0.176   3.113  0.0711 -0.2450  0.8764
14929SOL    HW145981   3.881   0.136   3.153  0.2979 -0.4508  0.2346
14929SOL    HW245982   3.730   0.125   3.146  0.2598 -0.4487  0.9838
14930SOL     OW45983   3.135   2.493   6.918 -0.4649  0.0412 -0.3135
14930SOL    HW145984   3.171   2.443   6.845  1.3190  0.8806 -0.0604
14930SOL    HW245985   3.040   2.485   6.908 -0.2488 -1.3492 -1.6644
14931SOL     OW45986   4.020   2.077   0.517 -0.0429 -0.5781  0.3840
14931SOL    HW145987   4.061   2.036   0.593  0.6115  0.2841  0.5113
14931SOL    HW245988   4.007   2.005   0.455  2.1248 -0.8206  0.1526
14932SOL     OW45989   0.442   0.651   3.923 -0.1081 -0.0289  0.3841
14932SOL    HW145990   0.463   0.723   3.863  0.7862 -0.6473 -0.0666
14932SOL    HW245991   0.388   0.692   3.990 -1.8826  0.4911 -1.2802
14933SOL     OW45992   0.385   4.478   2.944  0.3078 -0.0296  0.1835
14933SOL    HW145993   0.375   4.571   2.967  0.9389  0.0928 -0.0235
14933SOL    HW245994   0.295   4.446   2.934  0.0425  1.2420 -2.4150
14934SOL     OW45995   2.540   8.327   0.853  0.1431  0.1292  0.1985
14934SOL    HW145996   2.602   8.384   0.809  0.8417  0.4890  1.6112
14934SOL    HW245997   2.577   8.312   0.940 -0.5759 -1.5805  0.2455
14935SOL     OW45998   3.100   4.414   5.277  0.1948  0.7007 -0.0710
14935SOL    HW145999   3.114   4.335   5.225  1.0665  0.8056  0.0019
14935SOL    HW246000   3.143   4.484   5.227 -2.0546  1.4990 -1.0671
14936SOL     OW46001   8.141   2.360   6.257 -0.4777  0.2935 -0.0007
14936SOL    HW146002   8.206   2.299   6.293 -2.8061 -1.4366  1.5729
14936SOL    HW246003   8.187   2.443   6.250  2.3263 -1.1868 -0.4976
14937SOL     OW46004   3.078   5.626   4.637 -0.3446  0.7424  0.0192
14937SOL    HW146005   3.091   5.532   4.637 -0.5134  0.7189  0.4105
14937SOL    HW246006   3.089   5.652   4.545 -1.0565  0.2403 -0.2120
14938SOL     OW46007   6.145   0.800   8.049 -0.9283 -0.3607  0.3784
14938SOL    HW146008   6.131   0.759   8.134 -2.3839  1.4616  1.1007
14938SOL    HW246009   6.080   0.759   7.992  0.1062 -1.6470  0.0949
14939SOL     OW46010   8.359   5.430   3.145 -0.1119  0.0017 -0.4578
14939SOL    HW146011   8.420   5.363   3.177  1.3130  1.1032 -0.7363
14939SOL    HW246012   8.296   5.441   3.217  0.6173 -0.4666  0.2723
14940SOL     OW46013   5.958   3.980   0.420  0.1447 -0.1179 -0.6275
14940SOL    HW146014   6.027   4.045   0.437 -0.7091  0.2575  1.9032
14940SOL    HW246015   5.876   4.028   0.436 -0.5925 -1.2425 -0.9468
14941SOL     OW46016   8.084   5.078   0.602 -0.4317  0.2441 -0.5240
14941SOL    HW146017   8.117   4.991   0.621  1.8897  0.6362 -2.2255
14941SOL    HW246018   8.082   5.123   0.687 -2.5731 -1.6566  0.5182
14942SOL     OW46019   0.231   4.160   2.417 -0.4905 -0.6100  0.4092
14942SOL    HW146020   0.190   4.244   2.435 -0.2194 -0.5136  0.5802
14942SOL    HW246021   0.288   4.144   2.492  1.3177  0.1977 -0.7173
14943SOL     OW46022   5.334   4.164   3.781  0.5395  0.0623  0.1086
14943SOL    HW146023   5.355   4.257   3.792  0.8717  0.0156 -0.1183
14943SOL    HW246024   5.413   4.118   3.810  0.5825 -0.1310 -0.3076
14944SOL     OW46025   1.641   3.351   2.040 -0.1010  0.1556 -0.0635
14944SOL    HW146026   1.624   3.262   2.008  1.0473 -0.1380  0.1157
14944SOL    HW246027   1.718   3.380   1.993  0.4533  0.4685  0.9918
14945SOL     OW46028   3.658   6.791   2.213 -0.2791  0.5996 -0.4833
14945SOL    HW146029   3.576   6.782   2.164 -1.5708  2.3808  1.1885
14945SOL    HW246030   3.704   6.863   2.170  0.1982 -0.0440 -1.0844
14946SOL     OW46031   6.532   5.333   5.324 -0.5948 -0.0705 -0.0751
14946SOL    HW146032   6.619   5.292   5.325  0.2491  1.6124 -0.4658
14946SOL    HW246033   6.534   5.390   5.247 -1.5401  1.0423  0.6964
14947SOL     OW46034   7.876   1.279   7.398 -0.6055 -0.1106  0.1801
14947SOL    HW146035   7.826   1.323   7.329  0.7585  0.8539 -0.2321
14947SOL    HW246036   7.964   1.314   7.390 -0.4296  0.1395  2.5174
14948SOL     OW46037   1.318   1.072   1.328  0.2909  0.1261 -0.2593
14948SOL    HW146038   1.238   1.084   1.276  0.3887  0.0409 -0.4303
14948SOL    HW246039   1.352   1.160   1.340 -0.2330  0.2462  0.4598
14949SOL     OW46040   1.520   7.685   5.299 -0.6956  0.3116  0.0535
14949SOL    HW146041   1.445   7.660   5.244  0.6445 -0.2695 -1.5721
14949SOL    HW246042   1.548   7.770   5.265 -0.8009  0.6831  0.8731
14950SOL     OW46043   2.846   1.784   1.691 -0.2075  0.2450 -0.1308
14950SOL    HW146044   2.795   1.865   1.689  1.1501  1.1488  0.3643
14950SOL    HW246045   2.854   1.764   1.785  0.9603  0.5330 -0.1593
14951SOL     OW46046   2.659   8.306   4.865 -0.5536  0.0518 -0.7631
14951SOL    HW146047   2.732   8.296   4.927  0.2288 -0.2529 -1.7053
14951SOL    HW246048   2.587   8.339   4.918 -0.1253 -0.8832  0.4452
14952SOL     OW46049   3.747   7.396   0.191  0.0989  0.6966  0.0170
14952SOL    HW146050   3.678   7.462   0.183  0.6818  1.3694  0.3614
14952SOL    HW246051   3.725   7.348   0.271 -0.1661  0.6636 -0.0737
14953SOL     OW46052   1.880   3.451   1.972  0.2210  0.1387  0.4591
14953SOL    HW146053   1.941   3.516   2.007 -0.2314  0.9081 -0.1619
14953SOL    HW246054   1.924   3.417   1.894  0.0982  0.2818  0.3289
14954SOL     OW46055   8.570   2.746   6.052  0.2284 -0.1163  0.1864
14954SOL    HW146056   8.500   2.681   6.063  0.3477 -0.5784 -1.4746
14954SOL    HW246057   8.623   2.711   5.980  0.4293  1.6946 -0.5885
14955SOL     OW46058   4.461   2.497   2.746  0.8230 -0.8763 -0.1151
14955SOL    HW146059   4.382   2.522   2.697 -0.4299 -0.8033  1.8336
14955SOL    HW246060   4.517   2.454   2.681  0.5204  1.7202 -2.2509
14956SOL     OW46061   2.417   4.742   0.436 -0.2645  0.1237 -0.5602
14956SOL    HW146062   2.396   4.687   0.511  1.0771  1.7660  1.1199
14956SOL    HW246063   2.332   4.774   0.405 -0.8462 -0.6301  0.1997
14957SOL     OW46064   2.350   3.666   2.195 -0.0468  0.3524  0.0864
14957SOL    HW146065   2.380   3.748   2.155 -0.6134  0.3008 -0.4706
14957SOL    HW246066   2.279   3.692   2.253 -0.0407  0.2846  0.1245
14958SOL     OW46067   1.501   7.249   4.772 -0.0844 -0.1904  0.1000
14958SOL    HW146068   1.521   7.322   4.831  0.8497 -0.1349 -0.2732
14958SOL    HW246069   1.415   7.272   4.734  0.7490  1.3681 -0.9782
14959SOL     OW46070   6.307   7.707   6.740  0.7266  0.3681  0.7249
14959SOL    HW146071   6.331   7.759   6.663  0.8443 -0.9687 -0.1607
14959SOL    HW246072   6.307   7.771   6.812  0.3656  1.6905 -0.4049
14960SOL     OW46073   3.057   2.355   2.400  0.0987  0.4312  0.3534
14960SOL    HW146074   2.971   2.324   2.371 -0.3905  2.0597 -0.0874
14960SOL    HW246075   3.054   2.349   2.495 -0.5566  0.5585  0.3480
14961SOL     OW46076   2.343   2.639   4.611  0.0664 -0.4846  0.2760
14961SOL    HW146077   2.251   2.645   4.585 -0.1565  1.4363  1.2518
14961SOL    HW246078   2.348   2.561   4.666 -1.7354  0.9538  2.6831
14962SOL     OW46079   2.806   5.791   4.729 -0.3617  0.2916  0.5284
14962SOL    HW146080   2.846   5.862   4.779 -0.7683  1.8727 -1.2713
14962SOL    HW246081   2.880   5.735   4.702 -0.0219  0.1039  1.8061
14963SOL     OW46082   7.589   1.268   2.247  0.2684  0.2912  0.5198
14963SOL    HW146083   7.518   1.333   2.249 -1.1949 -1.1991 -0.2021
14963SOL    HW246084   7.633   1.284   2.164 -0.0192  0.4429  0.3920
14964SOL     OW46085   8.436   2.178   4.820 -0.2224  0.3092 -0.4025
14964SOL    HW146086   8.504   2.225   4.771 -0.7768  1.2460 -0.3090
14964SOL    HW246087   8.436   2.219   4.906 -1.8888  1.3619 -0.8500
14965SOL     OW46088   8.255   3.169   1.513 -0.1989 -0.4547 -0.3656
14965SOL    HW146089   8.213   3.239   1.464  0.1633 -0.0986 -0.1793
14965SOL    HW246090   8.215   3.089   1.481 -1.5880 -0.0843  0.3575
14966SOL     OW46091   6.003   3.779   1.605  0.3158 -0.4651  0.2517
14966SOL    HW146092   5.913   3.809   1.598  0.7648  1.3686  1.5004
14966SOL    HW246093   6.006   3.733   1.689  0.5317 -0.4875  0.2322
14967SOL     OW46094   4.646   0.016   5.376  0.5866 -0.2775  0.3843
14967SOL    HW146095   4.712   0.019   5.307  0.3195 -0.1524  0.1320
14967SOL    HW246096   4.576  -0.039   5.341 -0.6247  1.6656 -0.4143
14968SOL     OW46097   8.488   4.835   1.505 -0.2949  0.0780 -0.3645
14968SOL    HW146098   8.493   4.753   1.554  1.4442 -1.1601 -2.4474
14968SOL    HW246099   8.450   4.810   1.420  0.8778  1.2618 -1.2818
14969SOL     OW46100   2.911   2.058   7.661 -0.5354 -0.3744  0.2774
14969SOL    HW146101   2.926   2.151   7.677 -0.1213  0.3996 -3.5841
14969SOL    HW246102   2.816   2.050   7.653 -0.8826 -1.0200  3.4661
14970SOL     OW46103   4.552   1.011   7.809 -0.2351  0.7388 -0.1645
14970SOL    HW146104   4.479   0.994   7.749  1.5280  0.5254 -2.3759
14970SOL    HW246105   4.564   1.106   7.806 -0.0218  0.7083 -0.3222
14971SOL     OW46106   0.080   3.555   0.224  0.3581  0.0734 -0.4218
14971SOL    HW146107  -0.012   3.533   0.208  0.2514  0.5816 -0.5296
14971SOL    HW246108   0.129   3.482   0.188  0.0045 -0.0770 -0.6069
14972SOL     OW46109   3.739   2.328   0.959 -0.0608  0.1242 -0.3038
14972SOL    HW146110   3.799   2.381   0.906 -0.9625  0.8887 -0.5895
14972SOL    HW246111   3.678   2.391   0.997 -0.0067 -0.5253  0.8949
14973SOL     OW46112   5.204   2.846   5.071 -0.1724  0.2773 -0.2250
14973SOL    HW146113   5.240   2.765   5.106  1.7922  0.9129 -0.6330
14973SOL    HW246114   5.135   2.818   5.010 -2.1171 -0.9119  2.3423
14974SOL     OW46115   1.056   5.536   2.335 -0.3432 -0.3469  0.5222
14974SOL    HW146116   1.140   5.491   2.333  0.8225  1.7452 -1.1736
14974SOL    HW246117   1.058   5.588   2.416  0.1080 -0.1194  0.3666
14975SOL     OW46118   0.817   4.645   7.344  0.6199  0.3945 -0.0605
14975SOL    HW146119   0.774   4.663   7.260  0.1842  0.6446  0.2131
14975SOL    HW246120   0.910   4.664   7.328  0.9459 -1.7288 -1.1286
14976SOL     OW46121   2.765   5.247   6.344  0.0050 -0.2564  0.0695
14976SOL    HW146122   2.798   5.307   6.411 -2.0828  1.6213 -0.4781
14976SOL    HW246123   2.673   5.234   6.366  0.0163 -2.0364 -0.7526
14977SOL     OW46124   5.204   0.875   0.365  0.2524 -0.2147 -0.0726
14977SOL    HW146125   5.123   0.827   0.387 -0.4598  1.2018  0.5316
14977SOL    HW246126   5.274   0.825   0.406 -0.3645 -1.2171 -0.2154
14978SOL     OW46127   2.330   7.398   5.854 -0.7044  0.5736  0.2887
14978SOL    HW146128   2.373   7.453   5.789 -0.3099 -0.5904 -0.4640
14978SOL    HW246129   2.384   7.407   5.933  0.4338 -0.1445 -0.3737
14979SOL     OW46130   1.072   7.740   6.457  0.6695  0.6565  0.1853
14979SOL    HW146131   1.108   7.766   6.371  1.4150  2.6040  1.0236
14979SOL    HW246132   0.978   7.752   6.448  0.7353  0.7883 -0.3843
14980SOL     OW46133   4.886   1.944   6.827 -0.4402 -0.2624  0.3257
14980SOL    HW146134   4.941   1.906   6.895 -0.1854  0.8705  0.7664
14980SOL    HW246135   4.888   1.880   6.756 -0.4243 -1.2949  1.2334
14981SOL     OW46136   2.752   3.591   2.121 -0.2462  0.2855 -0.2529
14981SOL    HW146137   2.830   3.545   2.091 -0.4950 -1.4271  1.5323
14981SOL    HW246138   2.744   3.666   2.062  2.7350  0.5265 -0.4962
14982SOL     OW46139   6.537   6.779   8.241  0.2476 -0.6838  0.4723
14982SOL    HW146140   6.603   6.846   8.256  1.0906 -1.6194  1.0558
14982SOL    HW246141   6.471   6.822   8.186  1.9592 -0.0917 -1.2253
14983SOL     OW46142   0.497   3.178   2.837  0.1653  0.3324  0.0566
14983SOL    HW146143   0.546   3.216   2.909 -0.3106  0.5423  0.2782
14983SOL    HW246144   0.422   3.135   2.879  0.2672 -0.1586 -0.2554
14984SOL     OW46145   0.903   3.622   0.698  0.0088  0.3603 -0.1869
14984SOL    HW146146   0.991   3.586   0.700  0.2341  0.8017 -1.2488
14984SOL    HW246147   0.914   3.715   0.718 -0.4372  0.0912  1.4255
14985SOL     OW46148   1.209   5.645   1.174 -1.0540 -0.2004 -0.3280
14985SOL    HW146149   1.122   5.616   1.147 -1.5106 -0.4831  1.3678
14985SOL    HW246150   1.199   5.668   1.266  0.1346  1.9543 -0.6618
14986SOL     OW46151   3.051   3.211   3.986  0.4638  0.1321  0.3129
14986SOL    HW146152   2.995   3.182   4.058 -0.2780  1.0180  0.1150
14986SOL    HW246153   3.097   3.132   3.958  1.3251 -0.1094  2.2113
14987SOL     OW46154   1.221   4.808   7.604  0.4066  0.2095 -0.3786
14987SOL    HW146155   1.140   4.818   7.654 -0.1686 -0.2236 -1.2095
14987SOL    HW246156   1.284   4.863   7.650 -0.2200  0.1553  0.5766
14988SOL     OW46157   7.008   3.148   6.199 -0.7315 -0.2425 -0.0096
14988SOL    HW146158   7.033   3.133   6.108  2.1246 -1.3446  0.8507
14988SOL    HW246159   6.922   3.106   6.208 -0.8173 -0.5624 -2.0519
14989SOL     OW46160   0.476   3.433   4.979  0.1236 -0.3047 -0.7219
14989SOL    HW146161   0.452   3.433   5.072  1.2807  0.2751 -0.4038
14989SOL    HW246162   0.399   3.468   4.935  0.3231  1.5642  0.2693
14990SOL     OW46163   0.689   0.819   1.867 -0.1461  0.1281 -0.1785
14990SOL    HW146164   0.624   0.813   1.797  0.5270 -1.0141 -0.7321
14990SOL    HW246165   0.751   0.884   1.835  0.1600 -0.3898 -0.6571
14991SOL     OW46166   4.646   0.296   8.552 -0.1902  0.5457 -0.2073
14991SOL    HW146167   4.553   0.295   8.532 -0.8765  2.2777  2.4137
14991SOL    HW246168   4.688   0.275   8.469 -2.8802 -0.0896 -1.5200
14992SOL     OW46169   6.020   3.711   1.864 -0.6212  0.5703  0.1384
14992SOL    HW146170   6.006   3.795   1.908  1.2264  0.7748  0.4201
14992SOL    HW246171   6.046   3.652   1.934 -2.4532 -0.4277  0.0314
14993SOL     OW46172   4.694   1.013   2.147 -0.0381 -0.1948  1.0405
14993SOL    HW146173   4.740   0.946   2.098  1.5192  0.2247  1.8550
14993SOL    HW246174   4.603   1.007   2.117  0.6666 -0.5210 -1.2113
14994SOL     OW46175   0.105   6.295   0.539  0.0171 -0.4383 -0.4605
14994SOL    HW146176   0.135   6.249   0.617 -2.7573 -0.8468  0.4808
14994SOL    HW246177   0.028   6.345   0.569 -0.3628  0.3967 -2.6543
14995SOL     OW46178   7.399   3.517   2.254 -0.7362  0.1977 -0.5485
14995SOL    HW146179   7.406   3.607   2.285 -3.9873  0.6358 -0.6931
14995SOL    HW246180   7.440   3.464   2.323 -2.1927  1.5919  1.5174
14996SOL     OW46181   3.657   3.868   5.584 -0.3702 -0.3852  0.1948
14996SOL    HW146182   3.743   3.862   5.542 -1.5761 -0.7499 -2.3596
14996SOL    HW246183   3.647   3.961   5.604 -0.2612  0.0415 -1.5747
14997SOL     OW46184   5.923   7.262   6.348 -0.0704 -0.4446  0.3418
14997SOL    HW146185   5.855   7.233   6.286  0.0073 -0.9718  0.4989
14997SOL    HW246186   5.885   7.244   6.434 -0.3274  0.6196  0.4703
14998SOL     OW46187   2.169   7.361   2.697 -0.3726 -0.1083 -0.1634
14998SOL    HW146188   2.222   7.309   2.637 -0.3398  0.4810 -0.6450
14998SOL    HW246189   2.126   7.426   2.642  0.3189  0.9997  0.5586
14999SOL     OW46190   1.798   0.559   5.915  0.5953  0.3084 -0.1336
14999SOL    HW146191   1.748   0.641   5.923  0.0244  0.0326 -0.8329
14999SOL    HW246192   1.792   0.536   5.823  1.5547 -0.0289 -0.1139
15000SOL     OW46193   7.410   1.278   7.343  0.3547 -0.2854 -0.4623
15000SOL    HW146194   7.315   1.284   7.349  0.2369 -1.7523 -0.5411
15000SOL    HW246195   7.434   1.344   7.278 -0.5202  0.5737  0.0524
15001SOL     OW46196   3.027   6.612   8.602 -0.2608 -0.2280  0.0368
15001SOL    HW146197   3.105   6.628   8.655 -1.0854 -2.1763  2.0522
15001SOL    HW246198   3.040   6.524   8.565 -0.8807  0.0077 -0.7808
15002SOL     OW46199   8.157   5.407   5.941 -0.0973  0.1715 -0.2260
15002SOL    HW146200   8.131   5.444   5.857 -1.5019  1.7683  0.8515
15002SOL    HW246201   8.246   5.439   5.955 -0.5318  1.4598 -0.2800
15003SOL     OW46202   2.429   0.137   4.548 -0.6273 -0.0578 -0.2740
15003SOL    HW146203   2.359   0.186   4.592 -0.0100  0.6057 -0.0212
15003SOL    HW246204   2.430   0.052   4.592  0.3776  0.7918  1.4493
15004SOL     OW46205   3.539   4.047   1.783  0.0182 -0.1947 -0.3484
15004SOL    HW146206   3.562   4.138   1.802 -1.6767  0.2996 -0.5616
15004SOL    HW246207   3.540   4.041   1.687 -0.2691 -0.2929 -0.3462
15005SOL     OW46208   8.038   2.976   7.487 -0.0810 -0.5762  0.0376
15005SOL    HW146209   8.076   2.960   7.400  0.8590 -0.9034  0.4963
15005SOL    HW246210   8.053   2.894   7.535 -0.2953 -0.2764  0.6194
15006SOL     OW46211   2.206   2.307   3.532  0.0411 -0.0575  0.5512
15006SOL    HW146212   2.179   2.241   3.469  0.3125 -0.7530  1.1448
15006SOL    HW246213   2.275   2.356   3.488 -0.6650  0.3184 -0.1640
15007SOL     OW46214   1.147   4.495   2.583 -0.1193  0.0007 -0.8197
15007SOL    HW146215   1.231   4.512   2.541  0.2228  1.4573  0.3723
15007SOL    HW246216   1.084   4.543   2.529  0.0821  0.4649 -0.6498
15008SOL     OW46217   1.667   1.011   1.426  0.1241 -0.5470 -0.5888
15008SOL    HW146218   1.697   1.079   1.486 -1.7466  0.2293 -0.4802
15008SOL    HW246219   1.718   0.934   1.451  0.0117 -0.0270  1.4390
15009SOL     OW46220   0.541   2.914   5.058 -0.4711 -0.5112  0.3782
15009SOL    HW146221   0.448   2.895   5.069 -0.7472  0.7165  0.3063
15009SOL    HW246222   0.552   2.927   4.964  0.0917 -2.1547  0.1973
15010SOL     OW46223   0.663   6.218   5.227  1.2979 -0.2308 -0.1562
15010SOL    HW146224   0.751   6.251   5.243  1.5593 -1.1743  0.4141
15010SOL    HW246225   0.676   6.130   5.192  0.5782 -0.6006  0.4706
15011SOL     OW46226   7.098   2.823   8.319  0.0733 -0.0189  0.7355
15011SOL    HW146227   7.030   2.889   8.319  0.0243 -0.0504 -0.4991
15011SOL    HW246228   7.052   2.740   8.336 -0.3700 -0.1809 -1.0951
15012SOL     OW46229   3.423   6.221   1.162  0.3026  0.2048  0.2533
15012SOL    HW146230   3.494   6.284   1.160  1.0880 -0.6404  0.5873
15012SOL    HW246231   3.466   6.136   1.158 -0.6484 -0.3424  1.0673
15013SOL     OW46232   7.018   7.336   1.942  0.3105  0.6551 -0.2034
15013SOL    HW146233   7.099   7.357   1.990  0.1873 -1.0211  0.8073
15013SOL    HW246234   7.045   7.271   1.877 -0.4086 -0.8975  0.9951
15014SOL     OW46235   5.490   2.550   0.891 -0.0232 -0.2437 -0.3267
15014SOL    HW146236   5.531   2.566   0.976  0.3694  0.8586 -0.7009
15014SOL    HW246237   5.563   2.541   0.830 -0.2992 -1.2485 -0.5222
15015SOL     OW46238   1.807   5.677   1.965  0.4286  0.0885  0.3089
15015SOL    HW146239   1.845   5.662   2.052  1.6317  0.1425 -0.1786
15015SOL    HW246240   1.793   5.589   1.929  1.8179  0.0501 -0.2021
15016SOL     OW46241   2.852   5.733   3.606  0.6835 -0.2151 -0.4943
15016SOL    HW146242   2.844   5.810   3.662 -0.8329 -0.5707 -0.1986
15016SOL    HW246243   2.840   5.659   3.665 -0.4595 -0.6062 -1.1901
15017SOL     OW46244   1.268   4.414   3.880 -0.2422  0.2893  0.0909
15017SOL    HW146245   1.354   4.413   3.839 -0.0820  0.0378  0.4290
15017SOL    HW246246   1.255   4.325   3.912 -1.5529 -0.2571 -1.8291
15018SOL     OW46247   4.798   8.344   5.005  0.5397 -0.4309  0.1482
15018SOL    HW146248   4.759   8.341   4.917 -0.8643 -1.2340  0.7645
15018SOL    HW246249   4.725   8.324   5.064  1.6543 -0.7972  1.4409
15019SOL     OW46250   7.001   6.729   2.943  0.0777 -0.0941 -0.4845
15019SOL    HW146251   7.052   6.751   2.865  1.2258 -1.7336 -0.2485
15019SOL    HW246252   7.050   6.768   3.015 -0.3551  0.4276 -0.4671
15020SOL     OW46253   3.970   0.181   5.787  0.7119  0.3986 -0.2725
15020SOL    HW146254   4.032   0.197   5.858  2.0946  1.1080 -1.5822
15020SOL    HW246255   3.930   0.266   5.771 -0.7116 -0.0694  0.6096
15021SOL     OW46256   7.801   0.221   4.682  0.1240 -0.3844 -0.1968
15021SOL    HW146257   7.710   0.194   4.682  0.4738 -1.5966  0.0415
15021SOL    HW246258   7.798   0.316   4.694 -1.1192 -0.3219 -0.8856
15022SOL     OW46259   0.116   2.315   1.526 -0.5299 -0.0160 -0.4248
15022SOL    HW146260   0.020   2.311   1.526 -0.5249 -2.6654  0.5187
15022SOL    HW246261   0.141   2.273   1.444 -0.1528  1.0080 -0.8446
15023SOL     OW46262   3.936   5.335   2.336 -0.0386  0.2473  0.3582
15023SOL    HW146263   3.999   5.328   2.408 -0.2385  1.7182  0.7089
15023SOL    HW246264   3.988   5.363   2.261  0.2265 -1.5931 -0.2102
15024SOL     OW46265   0.807   5.042   2.947 -0.6497  0.7240  0.4546
15024SOL    HW146266   0.794   5.091   3.028 -0.3635  0.7702  0.4730
15024SOL    HW246267   0.901   5.042   2.933 -0.6947  0.7063  0.1275
15025SOL     OW46268   2.183   0.194   2.266 -0.4289 -0.3451  0.2590
15025SOL    HW146269   2.221   0.117   2.309  0.0573  0.3263  1.0719
15025SOL    HW246270   2.187   0.175   2.173 -3.9585 -3.0488  0.4361
15026SOL     OW46271   8.525   5.715   2.766 -0.9198 -0.0405  0.1434
15026SOL    HW146272   8.511   5.799   2.721 -2.4411  0.2638  1.1044
15026SOL    HW246273   8.498   5.649   2.702  0.9977  0.1214 -0.8933
15027SOL     OW46274   8.187   1.548   3.643 -0.0387  0.1755  0.3996
15027SOL    HW146275   8.121   1.515   3.583 -0.4386  0.7038  0.5395
15027SOL    HW246276   8.224   1.625   3.599  0.4962 -0.1291  0.3126
15028SOL     OW46277   4.625   7.600   4.797 -0.3859  0.8273  0.2554
15028SOL    HW146278   4.614   7.515   4.755  3.3445  0.8593 -1.1640
15028SOL    HW246279   4.571   7.660   4.745 -1.8816 -0.3475  0.3670
15029SOL     OW46280   2.516   2.689   2.287  0.1527 -0.0471  0.9009
15029SOL    HW146281   2.458   2.619   2.316 -0.0141 -0.1553  0.3194
15029SOL    HW246282   2.464   2.769   2.296  0.1720 -0.0575  1.0952
15030SOL     OW46283   1.625   7.258   0.156  0.5006  0.1968 -0.3734
15030SOL    HW146284   1.608   7.240   0.248  1.7502 -1.1855 -0.3862
15030SOL    HW246285   1.699   7.318   0.156  1.0843 -0.5068 -0.4728
15031SOL     OW46286   0.746   4.387   7.218  0.1013 -0.4381  0.4189
15031SOL    HW146287   0.763   4.460   7.158  0.3642 -0.1258  0.8636
15031SOL    HW246288   0.695   4.324   7.166  1.4169 -0.7613 -0.5237
15032SOL     OW46289   7.888   6.608   0.917 -0.1514 -0.1890  0.2399
15032SOL    HW146290   7.793   6.609   0.921 -0.1575 -0.4659  0.1443
15032SOL    HW246291   7.909   6.593   0.825 -0.0234 -1.8355  0.4997
15033SOL     OW46292   2.796   3.006   7.210  0.1977 -0.4280  0.5395
15033SOL    HW146293   2.778   2.970   7.296  0.8613 -1.7901  0.1373
15033SOL    HW246294   2.711   3.038   7.178  0.0367  0.5403  1.8617
15034SOL     OW46295   8.269   0.149   8.422  0.2310  0.4798 -0.0435
15034SOL    HW146296   8.198   0.173   8.363 -0.2839  0.3938  0.5320
15034SOL    HW246297   8.231   0.156   8.510  0.6792 -0.4091  0.2334
15035SOL     OW46298   4.231   5.383   6.695 -0.9705 -0.2030 -0.1014
15035SOL    HW146299   4.266   5.468   6.722 -0.8874  0.4249 -2.0206
15035SOL    HW246300   4.268   5.321   6.757  0.9615  0.8615 -0.1133
15036SOL     OW46301   8.255   1.696   6.297 -0.1207  0.0392  0.0631
15036SOL    HW146302   8.230   1.776   6.344 -0.9694 -1.6190  2.6641
15036SOL    HW246303   8.171   1.659   6.268  0.1410 -0.5490  0.0445
15037SOL     OW46304   5.597   8.059   3.552  0.0327  0.0979  0.4583
15037SOL    HW146305   5.572   8.151   3.551 -0.7817 -0.0818  1.6078
15037SOL    HW246306   5.692   8.059   3.540  0.3725  1.2652  2.6152
15038SOL     OW46307   4.112   0.825   7.541  0.2755  0.0250 -0.7406
15038SOL    HW146308   4.152   0.752   7.494  0.1831 -1.3638  1.2167
15038SOL    HW246309   4.044   0.857   7.482 -0.9116 -2.6790 -0.9831
15039SOL     OW46310   2.615   0.880   6.314 -0.1716  0.1233 -0.6799
15039SOL    HW146311   2.636   0.801   6.265  0.6189 -0.5404  0.7096
15039SOL    HW246312   2.536   0.914   6.270  0.3554 -0.5647 -2.2447
15040SOL     OW46313   2.779   1.528   3.470  0.2617 -0.3749 -0.0162
15040SOL    HW146314   2.803   1.610   3.427 -0.2203 -0.7587 -1.0514
15040SOL    HW246315   2.760   1.553   3.561  0.9363  0.5128 -0.1041
15041SOL     OW46316   5.743   5.612   5.323 -0.2707 -0.1679  0.1600
15041SOL    HW146317   5.810   5.567   5.375 -0.3920  1.7628  2.0840
15041SOL    HW246318   5.791   5.681   5.277 -0.7485  0.4122  0.5362
15042SOL     OW46319   0.685   6.934   3.039 -0.3246 -0.0305  0.5242
15042SOL    HW146320   0.616   6.878   3.074 -0.9498  0.2374 -0.2495
15042SOL    HW246321   0.711   6.892   2.957 -1.0845  0.9946 -0.2706
15043SOL     OW46322   2.373   7.119   7.034  0.2183 -0.0729 -0.3171
15043SOL    HW146323   2.446   7.167   7.074  0.5971 -2.1759  1.7637
15043SOL    HW246324   2.394   7.027   7.050 -2.1288 -0.7942 -1.0923
15044SOL     OW46325   5.935   5.085   6.115  0.5601 -0.1010  0.0125
15044SOL    HW146326   5.917   5.173   6.082  1.3136  2.1198  4.6649
15044SOL    HW246327   6.028   5.071   6.097  0.7690  0.6968  0.4398
15045SOL     OW46328   6.769   0.707   2.819  0.5358  0.3823  0.4560
15045SOL    HW146329   6.757   0.681   2.910  0.6727 -0.1678  0.3217
15045SOL    HW246330   6.830   0.780   2.822  1.0012 -0.0140  0.7603
15046SOL     OW46331   4.656   0.774   2.636  0.0361 -0.3307 -0.0674
15046SOL    HW146332   4.562   0.754   2.640  0.0954 -0.5145  0.7287
15046SOL    HW246333   4.671   0.802   2.546 -0.2866 -2.7844 -0.9696
15047SOL     OW46334   2.465   8.252   0.574 -0.0160 -0.1006 -0.2791
15047SOL    HW146335   2.443   8.163   0.546  0.5751  0.0789 -1.3909
15047SOL    HW246336   2.474   8.247   0.669 -0.9179 -1.0119 -0.2265
15048SOL     OW46337   0.102   5.161   1.813 -0.3063  0.2171 -0.2881
15048SOL    HW146338   0.106   5.241   1.864 -1.2278 -0.3580  0.7292
15048SOL    HW246339   0.146   5.095   1.867  3.4605  0.6120 -2.4731
15049SOL     OW46340   5.217   1.358   1.980  0.3336 -0.4649  0.7057
15049SOL    HW146341   5.266   1.276   1.966  0.1202 -0.3097 -1.0573
15049SOL    HW246342   5.257   1.420   1.920 -1.3820 -0.0658 -0.0684
15050SOL     OW46343   4.713   5.565   1.665 -0.0044  0.0122 -0.3525
15050SOL    HW146344   4.654   5.501   1.626 -0.0613  0.7210 -1.4618
15050SOL    HW246345   4.706   5.642   1.609  0.1537  0.9564  0.8789
15051SOL     OW46346   6.861   7.475   3.692 -0.1427  0.3354 -0.3446
15051SOL    HW146347   6.787   7.530   3.668 -0.6239 -0.5874 -1.0561
15051SOL    HW246348   6.826   7.417   3.760  0.1578  0.4235 -0.1132
15052SOL     OW46349   2.505   6.379   8.111 -0.2486 -0.6823  1.0833
15052SOL    HW146350   2.555   6.433   8.049 -1.1062 -1.3288 -0.2373
15052SOL    HW246351   2.568   6.354   8.178  0.2664  1.6068  1.5265
15053SOL     OW46352   1.097   6.516   6.571  0.4066 -0.4099  0.1775
15053SOL    HW146353   1.038   6.448   6.539 -0.0237  0.6064 -1.3011
15053SOL    HW246354   1.183   6.475   6.573  0.1766 -0.9554 -0.8162
15054SOL     OW46355   0.072   6.856   7.130  0.4832  0.1593  0.0406
15054SOL    HW146356   0.053   6.891   7.043  1.4054 -1.3186 -0.8010
15054SOL    HW246357   0.165   6.871   7.142  0.2876  0.7001  0.9602
15055SOL     OW46358   5.994   2.435   7.358  0.3847 -0.0566 -0.2662
15055SOL    HW146359   5.913   2.461   7.400  2.2182  2.2248  2.2087
15055SOL    HW246360   6.030   2.366   7.415  1.1092  0.3642 -0.2047
15056SOL     OW46361   7.872   2.620   8.056  0.6312 -0.6011 -0.0252
15056SOL    HW146362   7.923   2.674   8.116  0.3956  0.4672 -0.7576
15056SOL    HW246363   7.936   2.581   7.997  0.6566  0.6952 -0.9110
15057SOL     OW46364   5.046   3.604   5.787 -0.6841  0.4597  0.5103
15057SOL    HW146365   5.058   3.697   5.810 -1.4178  0.6492  0.1386
15057SOL    HW246366   5.097   3.557   5.853  0.2166  1.1474  0.3338
15058SOL     OW46367   5.781   4.747   4.115 -0.1102 -0.4905 -0.7005
15058SOL    HW146368   5.705   4.690   4.106 -0.0740 -0.3799 -2.0010
15058SOL    HW246369   5.781   4.774   4.207 -1.2088 -1.0783 -0.5123
15059SOL     OW46370   0.663   1.539   0.546  0.3520  0.3034 -0.0068
15059SOL    HW146371   0.699   1.550   0.458  0.9695  0.2174  0.2280
15059SOL    HW246372   0.735   1.566   0.605  0.5629 -1.2688  0.4992
15060SOL     OW46373   1.360   8.258   7.683  0.5458  0.3703 -0.2047
15060SOL    HW146374   1.449   8.274   7.652  0.4383  0.3655 -0.5205
15060SOL    HW246375   1.307   8.321   7.635 -0.1176 -1.8973 -2.6562
15061SOL     OW46376   3.954   1.224   2.989  0.2012  0.2700  0.7245
15061SOL    HW146377   3.985   1.276   2.914 -2.0419  0.1182 -0.3793
15061SOL    HW246378   4.016   1.245   3.059  2.2666  0.5864 -1.0815
15062SOL     OW46379   3.315   7.489   7.611  0.2765  0.3695  0.3445
15062SOL    HW146380   3.364   7.521   7.535  0.5937  1.8108  1.1282
15062SOL    HW246381   3.249   7.556   7.626  0.5594  0.3662  1.6652
15063SOL     OW46382   2.251   4.357   4.391 -0.8628  0.5185 -0.0258
15063SOL    HW146383   2.162   4.324   4.402 -1.0401 -0.1183 -2.6571
15063SOL    HW246384   2.254   4.389   4.301  1.0014  2.4564  0.6389
15064SOL     OW46385   7.914   8.142   1.917  0.1194  0.5103 -0.0284
15064SOL    HW146386   7.919   8.171   1.826 -0.4229  2.1375  0.4086
15064SOL    HW246387   8.004   8.126   1.943  0.1742 -1.2722 -1.2203
15065SOL     OW46388   1.617   8.204   4.653 -0.1569  0.2356  0.0197
15065SOL    HW146389   1.657   8.118   4.640  1.0660  0.6134  1.1451
15065SOL    HW246390   1.639   8.253   4.574 -0.2231 -0.2328 -0.2966
15066SOL     OW46391   7.645   7.999   8.137 -0.4559 -0.3200  0.9154
15066SOL    HW146392   7.557   7.993   8.099 -0.3230  1.0986  0.3103
15066SOL    HW246393   7.703   8.008   8.062  0.1008 -0.2592  1.3493
15067SOL     OW46394   7.792   5.299   7.931  0.1512 -0.6202 -0.3156
15067SOL    HW146395   7.749   5.271   7.850 -0.0544  0.2574 -0.5210
15067SOL    HW246396   7.771   5.230   7.994  0.7425 -1.5845 -1.1229
15068SOL     OW46397   4.283   7.679   3.865  0.1446  0.1833 -0.0140
15068SOL    HW146398   4.319   7.596   3.898 -0.3477 -0.2422 -0.5432
15068SOL    HW246399   4.188   7.666   3.867  0.0716  0.6906 -0.2262
15069SOL     OW46400   1.422   4.695   0.766  0.3263  0.0768 -0.6223
15069SOL    HW146401   1.437   4.640   0.843  1.2935  0.1075 -0.7692
15069SOL    HW246402   1.331   4.680   0.743  0.6788 -1.8361 -0.9382
15070SOL     OW46403   7.594   7.643   1.862 -0.1972  0.7612 -0.2906
15070SOL    HW146404   7.682   7.652   1.898  0.5515 -0.8278 -1.5882
15070SOL    HW246405   7.578   7.549   1.860 -1.6726  0.9954 -0.6666
15071SOL     OW46406   1.877   4.275   3.747  0.6412 -0.3280 -0.2594
15071SOL    HW146407   1.823   4.197   3.764  1.7357 -1.2253 -0.7605
15071SOL    HW246408   1.843   4.311   3.666 -0.6111  0.4085  0.5535
15072SOL     OW46409   2.614   3.557   6.922  0.2921 -0.2888  0.2685
15072SOL    HW146410   2.551   3.522   6.859 -0.6109 -0.9280  1.4634
15072SOL    HW246411   2.690   3.500   6.914  0.7800  0.5237 -1.2346
15073SOL     OW46412   2.674   6.056   5.158  0.1350  0.2502 -0.7239
15073SOL    HW146413   2.646   5.979   5.107 -0.6428  0.2254 -0.2858
15073SOL    HW246414   2.660   6.130   5.099 -2.4616  0.4247 -0.0236
15074SOL     OW46415   4.799   3.985   0.360 -0.3520 -0.7605 -0.2323
15074SOL    HW146416   4.893   3.970   0.375 -0.3253 -0.2953  0.0701
15074SOL    HW246417   4.756   3.939   0.432 -0.4947 -2.9336 -1.5946
15075SOL     OW46418   2.898   6.842   6.038  0.0264  0.3535  0.1187
15075SOL    HW146419   2.963   6.837   6.109 -0.4316  1.6803  0.6494
15075SOL    HW246420   2.820   6.799   6.073 -0.0247  0.5220  0.2085
15076SOL     OW46421   7.279   5.432   3.296 -0.1827 -0.3484  0.0764
15076SOL    HW146422   7.267   5.347   3.338  2.4679 -0.9361 -0.1872
15076SOL    HW246423   7.339   5.479   3.354  0.8382  0.1315 -1.3290
15077SOL     OW46424   5.104   7.144   4.833 -0.3759  0.7015 -0.0467
15077SOL    HW146425   5.050   7.065   4.833  0.7003 -0.0840 -1.3540
15077SOL    HW246426   5.042   7.215   4.817 -1.2139 -0.0123 -0.0518
15078SOL     OW46427   1.306   4.942   6.172 -0.0598  0.2334  0.1338
15078SOL    HW146428   1.249   4.866   6.189  2.2657 -1.5611  0.4485
15078SOL    HW246429   1.250   5.018   6.190 -2.2256 -1.3856  0.7569
15079SOL     OW46430   6.085   7.208   5.797 -0.0076  0.4367 -0.7181
15079SOL    HW146431   6.056   7.164   5.717 -0.5752  1.0617 -0.8694
15079SOL    HW246432   6.004   7.240   5.837 -0.0035 -1.7825  1.2894
15080SOL     OW46433   7.141   1.102   6.710  0.0410  0.0466 -0.1708
15080SOL    HW146434   7.086   1.174   6.740 -0.8759 -0.7860  0.2156
15080SOL    HW246435   7.228   1.122   6.743 -0.2745  0.8022  0.2121
15081SOL     OW46436   3.266   6.518   3.377 -0.1161 -0.0238  0.1864
15081SOL    HW146437   3.350   6.552   3.347 -0.8644  1.2605 -0.5811
15081SOL    HW246438   3.257   6.433   3.334  0.3943  0.2407 -0.4540
15082SOL     OW46439   2.224   7.606   5.007 -0.0220  0.4989  0.8450
15082SOL    HW146440   2.129   7.602   4.997  0.0432 -0.6844  0.5495
15082SOL    HW246441   2.255   7.651   4.929 -0.2427 -0.4059  0.2164
15083SOL     OW46442   7.536   1.396   0.904  0.2963  0.0328 -0.1860
15083SOL    HW146443   7.497   1.477   0.872  0.3314  0.0229 -0.2542
15083SOL    HW246444   7.471   1.361   0.965 -0.1928 -0.4366 -0.9635
15084SOL     OW46445   2.843   0.821   3.189  0.5219  0.4450 -0.5287
15084SOL    HW146446   2.777   0.890   3.178 -2.3509 -2.4533 -3.6784
15084SOL    HW246447   2.795   0.748   3.227  2.3086 -1.3010 -1.4767
15085SOL     OW46448   5.514   2.577   1.179 -0.1460  0.0712 -0.2312
15085SOL    HW146449   5.477   2.524   1.250  1.2703  1.2153  1.4652
15085SOL    HW246450   5.607   2.587   1.202  0.3032  0.7213 -2.1244
15086SOL     OW46451   1.041   5.917   4.341 -0.7411 -0.7120 -0.1894
15086SOL    HW146452   1.003   5.964   4.267  0.8958  0.4519 -0.3202
15086SOL    HW246453   0.965   5.888   4.391 -1.8973  3.0185  0.5202
15087SOL     OW46454   3.580   3.955   0.244  0.1441 -0.4839  0.6330
15087SOL    HW146455   3.648   3.888   0.237  0.3775 -0.1412 -1.0125
15087SOL    HW246456   3.627   4.037   0.229 -0.7241 -0.3129 -1.5906
15088SOL     OW46457   4.229   2.334   0.597 -0.2990  0.4773 -0.2000
15088SOL    HW146458   4.288   2.335   0.673 -2.3766  2.7918  1.5437
15088SOL    HW246459   4.155   2.281   0.624  0.0769 -0.9385 -1.7294
15089SOL     OW46460   5.409   6.152   0.132 -0.1047 -0.2896  0.2184
15089SOL    HW146461   5.348   6.193   0.071 -0.3038  1.0555  1.2793
15089SOL    HW246462   5.494   6.156   0.087 -0.1819  1.0079  0.1512
15090SOL     OW46463   0.426   2.455   7.891  0.4403 -0.0771 -0.8056
15090SOL    HW146464   0.410   2.402   7.813 -0.6229  0.6668 -1.1235
15090SOL    HW246465   0.440   2.543   7.857  0.9104  0.0820 -0.2092
15091SOL     OW46466   6.324   1.848   4.033 -0.0216  0.4762  0.5972
15091SOL    HW146467   6.270   1.880   4.105 -2.1046  0.4903 -0.9007
15091SOL    HW246468   6.355   1.928   3.989 -0.9469  0.4794 -0.0711
15092SOL     OW46469   7.125   5.122   6.798 -0.0779  0.3655  0.4194
15092SOL    HW146470   7.091   5.053   6.740  0.7340  0.0839  0.2693
15092SOL    HW246471   7.070   5.117   6.876 -1.8166  1.3720 -0.6821
15093SOL     OW46472   2.179   6.509   3.589  0.0544 -0.1276  0.1411
15093SOL    HW146473   2.150   6.572   3.654  1.5928  1.8876 -1.0122
15093SOL    HW246474   2.137   6.537   3.508  1.4070 -0.0285 -0.5582
15094SOL     OW46475   4.389   2.477   1.120 -0.1752 -0.1492  0.3876
15094SOL    HW146476   4.349   2.535   1.056 -1.6040 -0.8526  0.6111
15094SOL    HW246477   4.445   2.419   1.068 -0.4830 -0.0189 -0.0944
15095SOL     OW46478   4.021   6.010   3.522  0.0085  0.2901  0.4447
15095SOL    HW146479   4.062   6.024   3.608 -0.7103  0.1083  0.8199
15095SOL    HW246480   4.047   6.087   3.471 -1.6967  1.7302  1.6534
15096SOL     OW46481   1.384   3.038   3.023  0.6072  0.3380  0.9069
15096SOL    HW146482   1.454   3.102   3.032  2.1297 -0.8187 -1.5574
15096SOL    HW246483   1.338   3.064   2.943 -0.2718 -0.2772  1.1961
15097SOL     OW46484   2.824   4.981   6.530 -0.1917 -0.1718 -0.2931
15097SOL    HW146485   2.736   4.959   6.501 -0.8961  1.3270  0.6211
15097SOL    HW246486   2.824   5.076   6.539  1.5587 -0.1213 -0.3595
15098SOL     OW46487   4.109   5.267   2.852 -0.3000 -0.2855 -0.2849
15098SOL    HW146488   4.032   5.265   2.795 -1.3899  1.4283  1.0187
15098SOL    HW246489   4.073   5.257   2.940  1.1262 -0.7697  0.2607
15099SOL     OW46490   7.081   7.955   1.675  0.0873 -0.2413  0.3279
15099SOL    HW146491   7.057   7.866   1.703 -1.1476  0.3004  1.0618
15099SOL    HW246492   7.014   8.011   1.713  1.7078  1.2023  1.2400
15100SOL     OW46493   2.218   4.708   6.420 -0.1637 -0.6739  0.4938
15100SOL    HW146494   2.164   4.772   6.371 -0.9170 -0.6817  1.2900
15100SOL    HW246495   2.220   4.742   6.509 -0.4230 -1.6612  0.8918
15101SOL     OW46496   1.293   5.830   1.012 -0.9134  0.3653  0.0719
15101SOL    HW146497   1.236   5.819   0.936  0.5310  0.5853 -1.0964
15101SOL    HW246498   1.283   5.749   1.062  0.0485 -0.9718 -1.7531
15102SOL     OW46499   3.147   7.575   2.263 -0.2800  0.0444 -0.1201
15102SOL    HW146500   3.178   7.532   2.183  0.6102 -0.9576  0.7332
15102SOL    HW246501   3.187   7.525   2.334 -2.0129  0.1572  0.9997
15103SOL     OW46502   5.141   6.478   1.243 -0.8310 -0.1409  0.2462
15103SOL    HW146503   5.134   6.385   1.220 -0.3010 -0.1860  0.2579
15103SOL    HW246504   5.109   6.482   1.333 -3.4378  0.1268 -0.6149
15104SOL     OW46505   5.211   5.522   6.711  0.2197 -0.4717  0.1720
15104SOL    HW146506   5.248   5.590   6.768  0.0941 -0.4293  0.2044
15104SOL    HW246507   5.118   5.523   6.731 -0.1988  0.9961 -1.5020
15105SOL     OW46508   1.742   0.570   0.170 -0.0212 -0.1230  0.2186
15105SOL    HW146509   1.702   0.484   0.174  1.8876 -1.0896 -0.1770
15105SOL    HW246510   1.815   0.566   0.232 -0.8230  1.7862  1.4171
15106SOL     OW46511   4.433   8.479   5.231  0.4254 -0.2540 -0.3201
15106SOL    HW146512   4.406   8.499   5.321 -2.0415 -0.1320 -0.9981
15106SOL    HW246513   4.424   8.562   5.185  2.5186 -0.1132 -0.5384
15107SOL     OW46514   2.720   8.244   8.237  0.2372  0.2745  0.4105
15107SOL    HW146515   2.645   8.185   8.241  0.0579  0.5291  1.0917
15107SOL    HW246516   2.773   8.211   8.165 -0.2472 -0.2494  0.2827
15108SOL     OW46517   4.138   4.814   1.529 -0.7970 -0.6078  0.6208
15108SOL    HW146518   4.122   4.783   1.440 -1.1888 -1.0223  0.8301
15108SOL    HW246519   4.105   4.904   1.530  1.2318  0.2061 -0.2723
15109SOL     OW46520   1.345   2.717   1.127  0.7489 -0.0148  0.1679
15109SOL    HW146521   1.335   2.806   1.092  0.2866  0.1274  0.6418
15109SOL    HW246522   1.404   2.673   1.066  2.1983  1.0757  0.7124
15110SOL     OW46523   7.727   0.687   6.245  0.4443 -0.3279  0.0674
15110SOL    HW146524   7.817   0.667   6.218  0.3831 -0.5123 -0.0009
15110SOL    HW246525   7.735   0.764   6.301  0.5296  0.3648 -0.8607
15111SOL     OW46526   3.937   2.821   8.337  0.1273  0.1001  0.1107
15111SOL    HW146527   3.927   2.908   8.377  0.6886  0.8516 -1.3276
15111SOL    HW246528   3.915   2.834   8.245  1.2168 -1.0757 -0.3401
15112SOL     OW46529   7.533   2.410   4.807  0.1308 -0.3334 -0.3193
15112SOL    HW146530   7.439   2.394   4.796  0.0422  0.5105 -0.8695
15112SOL    HW246531   7.540   2.454   4.891 -0.3560  2.4144 -1.5947
15113SOL     OW46532   7.758   3.988   4.179  0.8510 -0.3212  0.1870
15113SOL    HW146533   7.779   4.059   4.240  0.3030 -0.2349  0.2758
15113SOL    HW246534   7.826   3.922   4.194  0.4289 -0.5194  1.2356
15114SOL     OW46535   7.084   3.612   5.265  0.0888 -0.4418 -0.1670
15114SOL    HW146536   7.039   3.530   5.246  1.2253 -0.9570 -0.7323
15114SOL    HW246537   7.092   3.614   5.360  0.2610 -1.1076 -0.1637
15115SOL     OW46538   1.031   5.862   0.231  0.8081 -0.0015  0.9059
15115SOL    HW146539   1.100   5.805   0.198  0.2350 -1.1069  1.5483
15115SOL    HW246540   0.972   5.803   0.279 -0.7318  0.8443  0.1606
15116SOL     OW46541   0.089   2.745   3.794  0.4960 -0.2390 -0.1963
15116SOL    HW146542   0.029   2.818   3.779  1.6784  0.7969 -0.0178
15116SOL    HW246543   0.106   2.747   3.888  1.2300 -0.1866 -0.3298
15117SOL     OW46544   5.678   3.706   1.084  0.1021  0.2105 -0.5472
15117SOL    HW146545   5.587   3.733   1.098 -0.7363 -2.2194 -0.9389
15117SOL    HW246546   5.712   3.690   1.172  0.8000  2.7669 -0.2464
15118SOL     OW46547   5.092   4.811   0.317  0.3940  0.2713 -0.0397
15118SOL    HW146548   5.130   4.875   0.256 -1.1376  0.5060 -0.7953
15118SOL    HW246549   5.105   4.726   0.274  1.8654  0.1136  0.6700
15119SOL     OW46550   6.920   4.705   5.079 -0.5004  0.5934 -0.0082
15119SOL    HW146551   6.966   4.705   4.996  1.3882  1.6180  0.9742
15119SOL    HW246552   6.924   4.796   5.109  0.5049 -0.0660  2.0325
15120SOL     OW46553   5.063   0.141   7.970  1.3957 -0.1642  0.3866
15120SOL    HW146554   5.053   0.235   7.986  1.1322 -0.1014 -0.1383
15120SOL    HW246555   5.118   0.136   7.892 -1.9431 -0.3323 -2.1831
15121SOL     OW46556   2.324   5.068   4.513  0.2451  0.0328  0.1453
15121SOL    HW146557   2.253   5.109   4.463  0.1937 -0.6861 -0.3889
15121SOL    HW246558   2.403   5.107   4.477  0.2333 -0.7670 -0.8106
15122SOL     OW46559   8.526   5.834   6.928  0.3817 -0.3395  0.0094
15122SOL    HW146560   8.591   5.897   6.960  0.0155  0.0045  0.0786
15122SOL    HW246561   8.451   5.846   6.985 -1.0914  1.7363 -2.1714
15123SOL     OW46562   7.590   5.868   6.861 -0.0636  0.0901 -0.2219
15123SOL    HW146563   7.607   5.775   6.873 -0.6793  0.1346  1.2605
15123SOL    HW246564   7.666   5.911   6.900 -0.2092  0.2149 -0.0742
15124SOL     OW46565   0.776   1.591   2.572  0.2950  0.1412  0.6526
15124SOL    HW146566   0.846   1.578   2.635  1.3770 -0.1673 -0.5665
15124SOL    HW246567   0.813   1.649   2.506 -0.6133  0.0165  0.0073
15125SOL     OW46568   6.575   2.168   3.183  0.0599 -0.2994 -0.9258
15125SOL    HW146569   6.512   2.156   3.253 -0.0232  0.3550 -0.8805
15125SOL    HW246570   6.524   2.205   3.111  0.6046  1.4462 -0.4586
15126SOL     OW46571   1.211   4.619   4.656 -0.3862 -0.8461  0.1305
15126SOL    HW146572   1.240   4.585   4.741  0.6052  2.1451  1.1347
15126SOL    HW246573   1.279   4.592   4.595 -0.0139 -1.2820  0.7210
15127SOL     OW46574   4.337   0.934   6.721  0.4171 -0.1165  0.6963
15127SOL    HW146575   4.256   0.897   6.755  0.0339  0.4218  0.3869
15127SOL    HW246576   4.397   0.860   6.715 -0.5859 -0.8548 -0.6815
15128SOL     OW46577   7.837   8.383   2.807  0.1931  0.4534 -0.4285
15128SOL    HW146578   7.929   8.403   2.788  0.1831  0.7379 -0.1903
15128SOL    HW246579   7.818   8.305   2.755  0.7884 -0.0618  0.0953
15129SOL     OW46580   0.841   8.103   2.530 -0.4228  0.5763  0.4012
15129SOL    HW146581   0.826   8.169   2.464 -0.8455 -0.6331 -0.7595
15129SOL    HW246582   0.754   8.072   2.554 -0.1933 -0.7653 -0.3728
15130SOL     OW46583   8.569   1.341   1.127  0.5403 -0.3349 -0.4286
15130SOL    HW146584   8.498   1.320   1.188  1.0079 -0.0941  0.2086
15130SOL    HW246585   8.613   1.416   1.166  2.2105 -1.5409  0.0936
15131SOL     OW46586   8.072   8.597   0.893 -0.2114  0.3851 -0.2350
15131SOL    HW146587   8.002   8.551   0.941  0.1930  0.3651  0.3396
15131SOL    HW246588   8.142   8.606   0.956  0.7384 -0.5544 -1.1128
15132SOL     OW46589   3.379   1.541   2.331  0.1961 -0.3303 -0.1703
15132SOL    HW146590   3.374   1.629   2.368  1.9040 -0.3914  0.3136
15132SOL    HW246591   3.374   1.483   2.408  1.7166 -0.5281 -0.1812
15133SOL     OW46592   3.965   4.123   8.190 -0.7795  0.2740  0.4719
15133SOL    HW146593   4.017   4.129   8.110 -0.4107  0.5606  0.7271
15133SOL    HW246594   3.995   4.196   8.243  0.4477 -1.0744  1.7307
15134SOL     OW46595   6.531   1.027   3.738 -0.2757 -0.2116 -0.4089
15134SOL    HW146596   6.600   1.083   3.702  0.0381 -0.6750 -0.5461
15134SOL    HW246597   6.508   1.068   3.821  0.0719  0.0208 -0.4244
15135SOL     OW46598   3.426   3.584   4.218 -0.6623  0.1691  0.1368
15135SOL    HW146599   3.427   3.668   4.171 -0.5593  0.2021  0.1979
15135SOL    HW246600   3.350   3.538   4.183 -0.8376  0.3718  0.2488
15136SOL     OW46601   7.402   6.584   0.251  0.1182  0.2845  0.2628
15136SOL    HW146602   7.398   6.678   0.234  2.1088  0.4720  0.5703
15136SOL    HW246603   7.489   6.558   0.220 -0.6675 -1.6240 -0.5064
15137SOL     OW46604   7.410   3.566   4.204  0.2546 -0.2536  0.0087
15137SOL    HW146605   7.471   3.601   4.270  1.0932 -0.1002 -0.8210
15137SOL    HW246606   7.445   3.479   4.184  1.1437  0.4412 -1.6148
15138SOL     OW46607   6.218   8.363   2.871 -0.1188 -0.4334  0.1850
15138SOL    HW146608   6.143   8.304   2.875  0.5701 -1.2805  1.2130
15138SOL    HW246609   6.291   8.309   2.843 -0.0999  0.6620 -2.0995
15139SOL     OW46610   0.289   3.184   7.905  0.1373 -0.5694  0.2627
15139SOL    HW146611   0.240   3.109   7.872  0.5198 -1.6520  2.0093
15139SOL    HW246612   0.367   3.188   7.849 -1.9980  1.4986 -2.8873
15140SOL     OW46613   1.528   0.317   5.242  0.3812 -0.1334  0.3091
15140SOL    HW146614   1.609   0.335   5.195 -0.8631  1.1391 -1.4606
15140SOL    HW246615   1.487   0.402   5.253 -0.9130 -0.7888  0.8109
15141SOL     OW46616   7.481   5.304   5.545  0.2307 -0.2098 -0.6574
15141SOL    HW146617   7.532   5.335   5.620  1.1435 -2.5373 -0.2331
15141SOL    HW246618   7.435   5.382   5.514  1.3217  1.2368  1.1171
15142SOL     OW46619   1.315   8.265   1.167 -0.4883  0.6350  0.4389
15142SOL    HW146620   1.407   8.285   1.182 -0.4152 -0.1137  1.0471
15142SOL    HW246621   1.267   8.328   1.221 -0.3051  0.3953  0.8858
15143SOL     OW46622   1.646   6.186   1.562  0.2061 -0.0671  0.1940
15143SOL    HW146623   1.650   6.252   1.492 -1.7694 -0.1948 -0.0810
15143SOL    HW246624   1.737   6.156   1.570  0.8044  1.2311 -1.0685
15144SOL     OW46625   4.189   2.153   7.721 -0.1131  1.0781 -0.1968
15144SOL    HW146626   4.257   2.188   7.664  1.4244 -0.4682  0.5880
15144SOL    HW246627   4.191   2.059   7.706  0.2316  0.6307  2.1985
15145SOL     OW46628   0.038   4.680   6.545 -0.3960 -0.2453 -0.0154
15145SOL    HW146629   0.034   4.696   6.451 -1.1513  2.1976  0.3652
15145SOL    HW246630   0.084   4.756   6.580 -1.6605 -0.2392  1.7603
15146SOL     OW46631   3.979   2.379   4.113 -0.3283  0.0082 -0.5348
15146SOL    HW146632   3.992   2.345   4.024 -0.5360 -0.3085 -0.4444
15146SOL    HW246633   3.907   2.441   4.105 -1.8193 -1.6168 -0.2011
15147SOL     OW46634   8.383   7.508   1.145 -0.1498  0.1985 -0.2501
15147SOL    HW146635   8.332   7.432   1.117  0.5291  0.0244 -1.0663
15147SOL    HW246636   8.318   7.573   1.171 -0.7470 -0.6279  0.3930
15148SOL     OW46637   5.529   6.399   6.886 -0.5814  0.5779 -0.4695
15148SOL    HW146638   5.530   6.441   6.972 -1.3784 -1.0823  0.3945
15148SOL    HW246639   5.620   6.372   6.871 -0.4149  0.9953 -0.2057
15149SOL     OW46640   7.842   6.153   4.804 -0.0233  0.0569  0.1005
15149SOL    HW146641   7.785   6.079   4.824 -1.9352  1.3558 -0.3287
15149SOL    HW246642   7.928   6.126   4.837 -0.3229 -2.8879 -1.2362
15150SOL     OW46643   3.227   4.506   3.793 -0.1897 -0.3458  0.3383
15150SOL    HW146644   3.181   4.579   3.752  1.4399  0.1781 -0.6365
15150SOL    HW246645   3.309   4.544   3.826 -1.0739 -0.8900  3.5451
15151SOL     OW46646   2.742   2.992   4.909 -0.4253  0.1570 -0.0559
15151SOL    HW146647   2.664   3.020   4.861 -1.2440  0.0536  1.1772
15151SOL    HW246648   2.804   3.065   4.899 -0.9056  0.4984 -0.5505
15152SOL     OW46649   7.389   5.561   5.175  0.1497  0.7609  0.0274
15152SOL    HW146650   7.345   5.507   5.110  0.9235 -1.2180  1.0714
15152SOL    HW246651   7.475   5.578   5.138  0.1278  0.7442 -0.0316
15153SOL     OW46652   7.004   4.762   0.156  0.2207  0.4048  0.0172
15153SOL    HW146653   6.978   4.853   0.174 -0.7901  0.3017 -0.8519
15153SOL    HW246654   7.090   4.754   0.197  1.6088  2.6002 -2.1209
15154SOL     OW46655   5.779   3.706   8.472 -0.4650  0.1464 -0.3144
15154SOL    HW146656   5.693   3.665   8.480 -0.7269  0.8740  0.9563
15154SOL    HW246657   5.821   3.690   8.557 -0.9863  3.2885  0.6938
15155SOL     OW46658   4.445   1.351   8.479 -0.3664 -0.1038  0.0046
15155SOL    HW146659   4.406   1.423   8.429  1.3118  0.7574 -0.1512
15155SOL    HW246660   4.521   1.391   8.523  1.4412 -2.0422 -1.1625
15156SOL     OW46661   6.784   0.525   1.500  0.1280  0.4037 -0.1131
15156SOL    HW146662   6.875   0.533   1.528  0.3981  0.7994 -1.0509
15156SOL    HW246663   6.778   0.580   1.422 -0.7843 -0.0257 -0.3635
15157SOL     OW46664   3.238   7.934   6.655  0.1367 -0.7725  0.0891
15157SOL    HW146665   3.331   7.913   6.648 -0.0329 -1.4213 -0.2232
15157SOL    HW246666   3.219   7.927   6.749  0.2476 -1.3278  0.0743
15158SOL     OW46667   4.317   3.849   2.045 -0.4899 -0.3767 -0.1955
15158SOL    HW146668   4.240   3.876   2.095 -1.1909  0.9737 -1.9137
15158SOL    HW246669   4.306   3.754   2.034 -2.2414 -0.1359 -0.8931
15159SOL     OW46670   5.547   3.322   1.382 -0.0267 -0.9899 -0.3866
15159SOL    HW146671   5.509   3.236   1.396 -0.7328 -0.7862 -0.9975
15159SOL    HW246672   5.633   3.305   1.345 -0.3631 -1.4224 -0.9711
15160SOL     OW46673   6.524   4.820   2.819  0.0542 -0.4058 -0.1326
15160SOL    HW146674   6.614   4.790   2.834  0.5373  0.3341 -1.3834
15160SOL    HW246675   6.534   4.902   2.771 -1.2905 -0.0190  0.2118
15161SOL     OW46676   6.435   5.810   1.432  0.2763  0.0777 -0.1337
15161SOL    HW146677   6.352   5.782   1.393  0.7371 -1.8866  0.1896
15161SOL    HW246678   6.501   5.753   1.393  1.2371  0.4336  0.9142
15162SOL     OW46679   8.174   4.094   1.231 -0.0521  0.3567 -0.8308
15162SOL    HW146680   8.235   4.059   1.165 -1.4825 -0.6550 -1.6800
15162SOL    HW246681   8.149   4.180   1.198  0.2689  0.4194 -0.9108
15163SOL     OW46682   3.755   5.907   3.554  0.5809  0.4736  0.6032
15163SOL    HW146683   3.733   5.869   3.469 -0.3243 -1.7046  1.7256
15163SOL    HW246684   3.838   5.952   3.540  1.0016 -0.7569 -1.1722
15164SOL     OW46685   1.770   2.298   4.758  0.3654 -0.0069  0.8233
15164SOL    HW146686   1.757   2.353   4.681 -1.4295 -0.3808  0.8035
15164SOL    HW246687   1.710   2.335   4.823 -2.8852 -3.2378  0.0536
15165SOL     OW46688   7.069   4.228   3.612  0.3467  0.1022 -0.2571
15165SOL    HW146689   7.087   4.184   3.695  2.3916  1.4894  0.0836
15165SOL    HW246690   6.992   4.282   3.630  1.2829  1.0466  1.0176
15166SOL     OW46691   5.312   1.850   8.463  0.2865  0.0984 -0.1066
15166SOL    HW146692   5.276   1.878   8.547 -1.2206  1.1626 -1.0609
15166SOL    HW246693   5.359   1.927   8.430 -2.1641  1.0116 -1.8084
15167SOL     OW46694   8.551   7.166   3.563  0.0725 -0.0481 -0.2023
15167SOL    HW146695   8.539   7.197   3.653 -1.3441  0.0098 -0.3967
15167SOL    HW246696   8.463   7.146   3.532  0.6259 -0.8795 -1.3008
15168SOL     OW46697   7.527   6.923   6.850 -0.0729 -0.2798  0.2454
15168SOL    HW146698   7.612   6.954   6.879  0.6806 -1.3143 -0.7798
15168SOL    HW246699   7.465   6.988   6.883  1.2607  1.3557 -0.3391
15169SOL     OW46700   7.273   0.875   7.986  0.3529  0.2108 -0.3096
15169SOL    HW146701   7.367   0.887   7.993  0.6525 -1.0665 -1.6354
15169SOL    HW246702   7.247   0.829   8.066  0.5028  2.1523  0.9321
15170SOL     OW46703   7.742   7.796   2.595  0.3273  0.2220  0.1755
15170SOL    HW146704   7.762   7.713   2.552  0.5028 -0.6167  1.7923
15170SOL    HW246705   7.803   7.859   2.556  1.1298 -0.7083 -0.0908
15171SOL     OW46706   1.894   3.480   6.923 -0.1401 -0.2191  0.3477
15171SOL    HW146707   1.973   3.528   6.950  1.0249 -2.8188  1.9818
15171SOL    HW246708   1.840   3.476   7.002 -0.2287 -1.4861  0.2428
15172SOL     OW46709   1.892   3.260   4.160  0.1220 -0.1310 -0.8024
15172SOL    HW146710   1.889   3.346   4.202  2.7824 -1.5930  2.8432
15172SOL    HW246711   1.985   3.246   4.139 -0.0342 -2.5409 -0.2184
15173SOL     OW46712   8.347   1.657   1.279  0.3313 -0.3920 -0.1500
15173SOL    HW146713   8.344   1.678   1.373  0.4751 -0.4971 -0.1212
15173SOL    HW246714   8.427   1.605   1.269  0.2803 -0.4378 -0.3197
15174SOL     OW46715   4.179   8.440   2.543  0.3443 -0.4161 -1.1073
15174SOL    HW146716   4.129   8.367   2.581 -1.1599  0.1878 -1.8558
15174SOL    HW246717   4.239   8.466   2.613 -0.1457 -1.3949 -0.2883
15175SOL     OW46718   7.629   7.333   2.236  0.1463  0.3923  0.3630
15175SOL    HW146719   7.582   7.251   2.226 -2.4059  1.9727 -1.5749
15175SOL    HW246720   7.691   7.336   2.163  0.8307 -0.1111  0.9033
15176SOL     OW46721   6.569   1.170   0.694 -0.1675 -0.6516 -1.2355
15176SOL    HW146722   6.548   1.106   0.761  3.3418 -2.0284 -1.2288
15176SOL    HW246723   6.661   1.190   0.708 -0.2349  1.7511 -3.4617
15177SOL     OW46724   1.320   3.866   0.187  0.1861  0.2942  0.3993
15177SOL    HW146725   1.296   3.956   0.162  0.2183 -0.0276 -0.8473
15177SOL    HW246726   1.239   3.829   0.223 -0.2898  0.3031 -0.6260
15178SOL     OW46727   6.825   3.248   7.911  0.6204 -0.0707 -0.1098
15178SOL    HW146728   6.892   3.195   7.868  1.3160  1.9160 -1.6536
15178SOL    HW246729   6.864   3.272   7.995  0.8972 -0.7618 -0.0311
15179SOL     OW46730   4.657   7.798   2.216 -0.0365 -0.0725  0.1323
15179SOL    HW146731   4.651   7.706   2.240  2.0735 -0.5414 -0.8667
15179SOL    HW246732   4.657   7.845   2.300 -2.4633 -0.8222  0.6042
15180SOL     OW46733   3.529   6.122   8.273 -0.9192  0.3232  0.1707
15180SOL    HW146734   3.488   6.154   8.354 -0.2080  0.9650  0.2780
15180SOL    HW246735   3.618   6.099   8.298 -1.2731 -1.4073  0.0083
15181SOL     OW46736   1.935   1.244   2.644 -0.3489  0.3310 -0.1202
15181SOL    HW146737   2.005   1.283   2.592 -0.3794  0.2317 -0.2351
15181SOL    HW246738   1.917   1.309   2.713  1.9897 -0.9254  1.8019
15182SOL     OW46739   5.610   4.084   1.576 -0.2034 -0.2682  0.1516
15182SOL    HW146740   5.560   4.073   1.495  0.1345  1.1425 -0.2693
15182SOL    HW246741   5.554   4.136   1.632  0.1895  0.0593  0.2411
15183SOL     OW46742   6.368   4.881   1.196  0.2388  0.3580 -0.0326
15183SOL    HW146743   6.413   4.935   1.260  1.4887 -1.4234  0.6783
15183SOL    HW246744   6.438   4.835   1.150 -0.7444 -0.1389 -1.0740
15184SOL     OW46745   2.734   3.841   4.412 -0.0213 -0.5800  0.5979
15184SOL    HW146746   2.718   3.919   4.359 -0.5170 -1.4535 -0.5874
15184SOL    HW246747   2.653   3.791   4.405  0.4852 -1.4610  0.8907
15185SOL     OW46748   3.487   3.774   2.476 -0.4329 -0.0584 -0.2859
15185SOL    HW146749   3.455   3.700   2.424  0.3181 -0.1210 -0.6713
15185SOL    HW246750   3.525   3.734   2.554 -1.6821  0.0436  0.4048
15186SOL     OW46751   2.030   3.241   3.623  0.3069  0.4942  0.6564
15186SOL    HW146752   2.090   3.169   3.647  0.3201  0.0705 -0.5820
15186SOL    HW246753   2.028   3.296   3.701  0.1108 -0.9730  1.7406
15187SOL     OW46754   7.833   6.375   6.421 -0.0428 -0.8519  0.1629
15187SOL    HW146755   7.861   6.307   6.360 -0.9158 -2.3836  1.3781
15187SOL    HW246756   7.742   6.351   6.442 -0.1107  0.2570  1.2154
15188SOL     OW46757   5.421   3.799   0.047 -0.2140  0.0770 -0.3744
15188SOL    HW146758   5.461   3.714   0.032  0.0154 -0.1288  1.2136
15188SOL    HW246759   5.494   3.861   0.051 -0.1999  0.0225  0.4514
15189SOL     OW46760   5.705   0.226   5.900 -0.0093 -0.6316  0.4977
15189SOL    HW146761   5.623   0.263   5.935  0.2432 -0.1290  0.5680
15189SOL    HW246762   5.772   0.289   5.926  0.3839 -0.9787  0.3278
15190SOL     OW46763   3.503   5.986   2.857  0.5539  0.2107  0.5549
15190SOL    HW146764   3.473   5.918   2.795 -1.2545  1.3415  0.0993
15190SOL    HW246765   3.570   6.034   2.809  0.7116 -0.2812  0.2774
15191SOL     OW46766   1.189   5.206   0.790  0.0627 -1.1149 -0.2418
15191SOL    HW146767   1.187   5.191   0.884  0.3379 -0.0055 -0.0447
15191SOL    HW246768   1.097   5.219   0.766  0.1892  3.0723  0.7053
15192SOL     OW46769   2.511   7.231   5.524  0.1379  0.5815 -0.4988
15192SOL    HW146770   2.606   7.221   5.532  0.0959  1.2604  0.9811
15192SOL    HW246771   2.490   7.309   5.575 -1.2318  0.4061 -0.7600
15193SOL     OW46772   0.355   3.026   4.574 -0.0788  0.2687 -0.3782
15193SOL    HW146773   0.366   2.983   4.489  0.0395 -1.0549  0.2764
15193SOL    HW246774   0.260   3.039   4.581 -0.0206  1.1851 -1.0682
15194SOL     OW46775   7.779   1.903   5.849 -0.4069  0.0997  0.1438
15194SOL    HW146776   7.718   1.973   5.874 -0.0057  0.6983 -0.5355
15194SOL    HW246777   7.840   1.944   5.789 -0.4160 -0.9394 -0.6072
15195SOL     OW46778   6.997   3.148   0.243 -0.3057  0.0515 -0.3721
15195SOL    HW146779   6.955   3.071   0.282 -0.4122  0.5528  0.5215
15195SOL    HW246780   6.991   3.133   0.149 -1.5932 -0.3624 -0.2408
15196SOL     OW46781   3.961   7.426   1.177 -0.2101  0.4024  0.3505
15196SOL    HW146782   4.055   7.415   1.171 -0.1039  0.9736  0.8613
15196SOL    HW246783   3.940   7.498   1.118 -0.0879  1.3986  1.4876
15197SOL     OW46784   3.983   5.308   6.565  0.0367  0.2230  0.3595
15197SOL    HW146785   3.955   5.227   6.609  1.1747 -0.2525  0.2335
15197SOL    HW246786   4.060   5.336   6.614  0.5833  0.3710 -0.5737
15198SOL     OW46787   3.100   8.508   1.812 -0.0318 -0.2454 -0.7772
15198SOL    HW146788   3.132   8.441   1.752  2.6550  0.3919 -0.1590
15198SOL    HW246789   3.178   8.556   1.839 -1.6138  1.8538  0.3825
15199SOL     OW46790   2.808   3.765   2.640  0.0628 -0.2514 -0.3442
15199SOL    HW146791   2.771   3.734   2.557 -0.4316 -0.1291 -0.1683
15199SOL    HW246792   2.742   3.824   2.676  0.9092  0.8742 -0.5760
15200SOL     OW46793   6.886   4.178   0.421 -0.1640 -0.0469  0.1051
15200SOL    HW146794   6.920   4.249   0.366 -0.2264 -0.4151 -0.4223
15200SOL    HW246795   6.795   4.201   0.437 -0.7603 -0.9519 -1.7006
15201SOL     OW46796   4.122   7.485   0.601 -0.8008  0.5647  0.0892
15201SOL    HW146797   4.208   7.454   0.630  0.4573  3.7381  0.2396
15201SOL    HW246798   4.129   7.492   0.506 -0.7507  1.1504  0.1319
15202SOL     OW46799   6.322   4.849   7.423  0.5497  0.1484 -0.0595
15202SOL    HW146800   6.399   4.869   7.370  1.1408  1.3375  1.1724
15202SOL    HW246801   6.329   4.755   7.440  0.7118 -0.1176 -1.4718
15203SOL     OW46802   7.992   6.949   0.458  0.2077 -0.3118  0.3451
15203SOL    HW146803   8.061   7.011   0.433  0.6518 -0.4925  1.0852
15203SOL    HW246804   7.927   6.957   0.389 -0.5550  2.2449  1.2405
15204SOL     OW46805   6.021   0.111   2.356 -0.0020  0.0334 -0.4620
15204SOL    HW146806   5.959   0.184   2.353  0.4691  0.4227 -1.2492
15204SOL    HW246807   6.061   0.117   2.443  1.1602  1.7113 -1.0518
15205SOL     OW46808   6.872   6.897   5.770  0.7987 -0.2206 -0.2262
15205SOL    HW146809   6.788   6.913   5.727  0.7515 -0.0137 -0.0608
15205SOL    HW246810   6.855   6.823   5.828 -0.1514  1.7828  2.2052
15206SOL     OW46811   0.098   6.772   3.885 -0.3426  0.1272  0.3749
15206SOL    HW146812   0.007   6.800   3.875 -0.2031  0.9946  1.3539
15206SOL    HW246813   0.105   6.747   3.977  0.7613  1.4944  0.7033
15207SOL     OW46814   0.715   5.115   7.543  0.0495  0.3595  0.8786
15207SOL    HW146815   0.809   5.097   7.539 -0.0559 -0.3439  1.4466
15207SOL    HW246816   0.674   5.029   7.549 -0.7417  0.5402 -1.0393
15208SOL     OW46817   5.515   6.322   1.501  0.0364  0.1334 -0.3932
15208SOL    HW146818   5.429   6.291   1.530  0.1315 -0.7737 -1.0298
15208SOL    HW246819   5.500   6.412   1.473 -0.9093 -0.2710 -1.2797
15209SOL     OW46820   7.814   5.925   0.023  0.3369  1.2802 -0.2668
15209SOL    HW146821   7.733   5.948   0.069 -0.5730  0.3889 -1.3401
15209SOL    HW246822   7.877   5.992   0.049 -0.5766  1.6631  1.0464
15210SOL     OW46823   3.082   7.589   3.999  0.2382 -0.4759  0.1368
15210SOL    HW146824   3.050   7.628   3.918  1.1557  0.0844  0.0303
15210SOL    HW246825   3.075   7.494   3.985 -2.1074 -0.4127  0.4363
15211SOL     OW46826   7.063   2.236   3.841 -0.4923 -0.2538 -0.3670
15211SOL    HW146827   7.129   2.260   3.776  0.4597 -0.4699  0.4875
15211SOL    HW246828   7.098   2.269   3.924 -0.9583 -1.2595  0.2555
15212SOL     OW46829   0.237   5.827   5.084  0.0436  0.0752 -0.3304
15212SOL    HW146830   0.232   5.797   4.994  1.3360  0.5571 -0.5722
15212SOL    HW246831   0.330   5.830   5.104 -0.2074  0.4014  0.8813
15213SOL     OW46832   2.570   4.841   6.522  0.0972  0.3482  0.2721
15213SOL    HW146833   2.600   4.759   6.482 -0.7535  0.7954 -1.3390
15213SOL    HW246834   2.493   4.865   6.471 -0.5893  1.3464  1.7327
15214SOL     OW46835   0.303   1.790   0.100  0.0122  0.2685 -0.0935
15214SOL    HW146836   0.361   1.755   0.032  0.3537  0.2729  0.1906
15214SOL    HW246837   0.266   1.712   0.141 -1.7282  0.2615 -1.5544
15215SOL     OW46838   2.755   3.469   7.394 -0.0794  0.1482  0.1835
15215SOL    HW146839   2.763   3.555   7.436 -0.6428 -0.2786  1.2187
15215SOL    HW246840   2.697   3.485   7.319  2.3568  1.2813 -1.5935
15216SOL     OW46841   5.853   3.381   3.269 -0.4913 -0.2126 -0.3018
15216SOL    HW146842   5.810   3.450   3.218 -0.6535 -0.3659 -0.3709
15216SOL    HW246843   5.946   3.388   3.245 -0.6604 -0.7100 -1.1152
15217SOL     OW46844   6.954   6.523   8.105  0.1795 -0.3718 -0.4257
15217SOL    HW146845   6.929   6.515   8.013  1.4298 -0.6384 -0.7637
15217SOL    HW246846   6.876   6.557   8.148 -0.3007  0.1497 -1.6536
15218SOL     OW46847   5.918   0.540   6.199 -0.4534 -0.3905  0.0721
15218SOL    HW146848   5.902   0.472   6.133  0.0834 -0.5380  0.0854
15218SOL    HW246849   5.898   0.622   6.154 -0.3502 -0.5092 -0.1938
15219SOL     OW46850   3.554   3.068   4.354  0.3995 -0.1910 -0.4035
15219SOL    HW146851   3.510   3.152   4.358 -0.1545 -0.4181 -1.5059
15219SOL    HW246852   3.518   3.025   4.276  0.1946 -1.7046  0.4789
15220SOL     OW46853   4.421   7.449   4.235 -0.2784  0.6351  0.6455
15220SOL    HW146854   4.427   7.537   4.271 -0.1373  1.0551 -0.3697
15220SOL    HW246855   4.432   7.461   4.140  1.2465 -0.6312  0.6216
15221SOL     OW46856   3.956   4.665   6.111 -0.0065 -0.1535  0.3259
15221SOL    HW146857   3.940   4.748   6.156  0.6542 -0.3370  0.9131
15221SOL    HW246858   3.953   4.687   6.018 -1.7928  0.1600  0.4131
15222SOL     OW46859   5.000   0.432   8.040  0.2927  0.3470 -0.4037
15222SOL    HW146860   5.039   0.485   8.109 -2.5463  1.3923  0.5837
15222SOL    HW246861   5.001   0.488   7.962  2.1572 -0.2702 -0.8601
15223SOL     OW46862   7.582   2.128   0.051 -0.3637 -0.1642  0.2466
15223SOL    HW146863   7.567   2.135   0.145 -0.2739 -1.9502  0.4256
15223SOL    HW246864   7.655   2.066   0.043  0.1489  0.5715 -0.9777
15224SOL     OW46865   1.586   2.013   4.463  0.3054  0.0222  0.7502
15224SOL    HW146866   1.551   1.985   4.378 -1.3687  0.2341  1.3334
15224SOL    HW246867   1.577   1.936   4.519 -1.7312  0.8213  1.6098
15225SOL     OW46868   0.542   8.003   0.919  0.4701 -0.1580 -0.2568
15225SOL    HW146869   0.529   7.976   1.010  3.1766 -0.8881  0.0012
15225SOL    HW246870   0.607   7.942   0.885 -0.1919  0.3525 -2.5874
15226SOL     OW46871   2.284   3.558   4.849 -0.5673 -0.1493  0.0186
15226SOL    HW146872   2.372   3.594   4.837 -0.6783  0.9083  1.8819
15226SOL    HW246873   2.269   3.564   4.943 -1.3736 -3.4460  0.2136
15227SOL     OW46874   3.797   2.202   7.518 -0.3896 -0.0585 -0.3723
15227SOL    HW146875   3.878   2.234   7.558 -0.0428 -1.9716  0.6147
15227SOL    HW246876   3.729   2.223   7.582 -0.4021  0.0935 -0.4369
15228SOL     OW46877   4.403   8.019   5.206 -0.4128 -0.2917 -0.3099
15228SOL    HW146878   4.421   7.965   5.283 -0.2934  0.8796  0.5169
15228SOL    HW246879   4.482   8.071   5.194 -0.8012  0.2443 -0.6208
15229SOL     OW46880   6.304   1.100   3.552  0.2679 -0.3482 -0.2169
15229SOL    HW146881   6.318   1.147   3.634  2.2690  0.5916 -1.0315
15229SOL    HW246882   6.323   1.009   3.573  1.4178 -0.0215  0.2550
15230SOL     OW46883   4.761   2.722   2.080 -0.2072 -0.3545 -0.1426
15230SOL    HW146884   4.840   2.704   2.030  0.0891  0.0307  0.1847
15230SOL    HW246885   4.778   2.805   2.124 -1.3432  0.4799 -1.2034
15231SOL     OW46886   3.687   8.013   8.537  0.0570  0.3320  0.4617
15231SOL    HW146887   3.651   7.925   8.540  0.2553  0.1943 -0.7210
15231SOL    HW246888   3.782   8.001   8.545  0.2854  0.2248 -1.7299
15232SOL     OW46889   5.702   5.377   6.478  0.6263  0.5298 -0.4362
15232SOL    HW146890   5.662   5.463   6.493  1.4751  0.5669  2.0015
15232SOL    HW246891   5.791   5.385   6.512  1.2000 -0.9361 -1.4560
15233SOL     OW46892   3.136   5.161   1.257 -0.6593  0.2539 -0.2513
15233SOL    HW146893   3.096   5.083   1.296  0.5621 -0.2085  0.1201
15233SOL    HW246894   3.221   5.131   1.225 -1.2379  0.8441 -2.4622
15234SOL     OW46895   0.541   3.561   3.516 -0.2301 -0.1264  0.1254
15234SOL    HW146896   0.628   3.601   3.512 -0.1225 -0.2001  1.4585
15234SOL    HW246897   0.538   3.505   3.439  0.8924 -0.0900  0.0319
15235SOL     OW46898   1.493   3.502   4.911 -0.6261 -0.3054 -0.1624
15235SOL    HW146899   1.458   3.583   4.949 -1.6533 -1.2261  0.9072
15235SOL    HW246900   1.544   3.532   4.835 -2.8173  1.1968 -1.1335
15236SOL     OW46901   5.196   3.433   3.593 -0.4137 -0.2890 -0.4014
15236SOL    HW146902   5.189   3.444   3.498 -0.0289  1.8720 -0.2472
15236SOL    HW246903   5.288   3.412   3.608 -0.2482  0.3701 -0.4569
15237SOL     OW46904   0.442   1.596   7.754 -0.4997 -0.1183  0.0337
15237SOL    HW146905   0.373   1.662   7.769 -1.5688 -1.1521 -0.1581
15237SOL    HW246906   0.423   1.528   7.818  0.6551 -0.2040  0.2921
15238SOL     OW46907   7.379   2.847   7.590 -0.3448  0.4748 -0.3601
15238SOL    HW146908   7.305   2.896   7.553 -0.6413  1.2327  1.1707
15238SOL    HW246909   7.402   2.894   7.670  0.4595 -0.9335  0.2826
15239SOL     OW46910   3.613   7.325   2.849 -0.7448  0.1469 -0.3433
15239SOL    HW146911   3.696   7.282   2.871 -0.3119  1.3616  0.5119
15239SOL    HW246912   3.574   7.348   2.933 -0.4075  2.3822 -0.7239
15240SOL     OW46913   6.070   7.764   6.325 -0.3564  0.9356  0.6040
15240SOL    HW146914   6.038   7.855   6.325 -0.5028  0.9017 -0.8516
15240SOL    HW246915   6.164   7.772   6.310 -0.4713  0.8270 -0.2023
15241SOL     OW46916   7.621   0.073   7.557  0.6960  0.1336  0.5341
15241SOL    HW146917   7.659   0.153   7.591  0.4995  0.2545  0.4708
15241SOL    HW246918   7.606   0.018   7.635  0.7071  0.2109  0.5902
15242SOL     OW46919   1.426   2.163   5.294  0.4446 -0.0229 -0.4498
15242SOL    HW146920   1.383   2.249   5.298 -2.6182 -1.3245 -1.8343
15242SOL    HW246921   1.382   2.112   5.362  1.6507 -0.7606 -0.1974
15243SOL     OW46922   7.610   0.829   5.530 -0.0379 -0.1677  0.3563
15243SOL    HW146923   7.552   0.795   5.599  1.3554 -0.9655  1.1806
15243SOL    HW246924   7.684   0.867   5.578  0.7905 -0.4131 -0.7068
15244SOL     OW46925   2.870   1.295   7.369 -0.3363  0.4226  0.2458
15244SOL    HW146926   2.921   1.259   7.297 -1.8735 -1.7861  0.1788
15244SOL    HW246927   2.830   1.375   7.332 -1.8033 -1.1203 -1.7326
15245SOL     OW46928   4.567   4.017   4.503  0.7768 -0.1139 -0.2285
15245SOL    HW146929   4.507   4.011   4.429 -0.2448  1.5762  0.4189
15245SOL    HW246930   4.522   4.073   4.566  0.9645 -2.6867  2.3461
15246SOL     OW46931   1.824   2.754   0.793  0.3447  0.0599  0.0904
15246SOL    HW146932   1.903   2.803   0.767  0.1282  0.3564 -0.0115
15246SOL    HW246933   1.777   2.739   0.711 -0.1487  0.6645  0.2527
15247SOL     OW46934   1.173   4.354   6.138 -0.5127 -0.0307 -0.6437
15247SOL    HW146935   1.140   4.394   6.218  0.2320 -0.3446 -0.1693
15247SOL    HW246936   1.104   4.293   6.112 -0.5547 -0.2767  0.0276
15248SOL     OW46937   5.778   6.709   6.046 -0.6704  0.6170 -0.1794
15248SOL    HW146938   5.688   6.713   6.014 -1.0272  0.3497  0.7848
15248SOL    HW246939   5.810   6.623   6.019  0.1806  1.6502 -2.7840
15249SOL     OW46940   0.770   4.264   4.465  0.0573  0.0666  0.4504
15249SOL    HW146941   0.717   4.300   4.536  0.5588  0.2330  0.7454
15249SOL    HW246942   0.859   4.264   4.499  0.1864 -0.6479  0.1292
15250SOL     OW46943   4.379   1.604   2.143 -0.4768 -0.1674 -0.3452
15250SOL    HW146944   4.297   1.644   2.172 -1.0891 -1.2288 -0.5277
15250SOL    HW246945   4.382   1.620   2.049  0.6848  1.8427 -0.0072
15251SOL     OW46946   3.241   1.013   7.470  0.0323 -0.0842 -0.1910
15251SOL    HW146947   3.316   0.976   7.516  0.8362  1.1555 -0.4645
15251SOL    HW246948   3.171   0.948   7.482  0.1647  0.1918  2.7737
15252SOL     OW46949   8.133   7.690   1.282  0.1624 -0.0053 -0.2899
15252SOL    HW146950   8.097   7.753   1.219  0.2261  0.9251  0.5847
15252SOL    HW246951   8.058   7.662   1.334  0.4504  0.8731  0.6201
15253SOL     OW46952   3.249   7.687   5.197 -0.0906 -0.8409 -0.0140
15253SOL    HW146953   3.251   7.735   5.114 -2.1910 -0.5942  0.0190
15253SOL    HW246954   3.293   7.744   5.260 -1.1124  0.3268 -0.3329
15254SOL     OW46955   3.447   3.148   5.521 -0.1808  0.1574 -0.0262
15254SOL    HW146956   3.441   3.203   5.443 -1.9317  0.4994  0.3142
15254SOL    HW246957   3.514   3.191   5.575 -0.4249  1.0819 -0.4413
15255SOL     OW46958   7.186   1.427   7.681 -0.3465 -0.0550  0.1863
15255SOL    HW146959   7.280   1.412   7.690 -0.2514  0.5782  0.3339
15255SOL    HW246960   7.152   1.416   7.770 -0.5328 -1.0254  0.0041
15256SOL     OW46961   3.023   1.035   1.503 -0.1692  0.0261 -0.1457
15256SOL    HW146962   3.037   1.087   1.582  0.1566  1.5306 -1.1567
15256SOL    HW246963   3.056   0.948   1.526 -0.6742  0.2408  1.5671
15257SOL     OW46964   1.023   5.030   2.653 -0.0653 -0.4671 -0.3962
15257SOL    HW146965   1.008   5.062   2.742  1.1510 -1.6236  0.2704
15257SOL    HW246966   1.116   5.050   2.636  0.5166 -2.7850 -0.2682
15258SOL     OW46967   7.870   2.864   2.132 -0.3877  0.1031 -0.3134
15258SOL    HW146968   7.845   2.927   2.065  0.9669  2.0856  0.9308
15258SOL    HW246969   7.799   2.867   2.195  0.1268  1.2255  0.2500
15259SOL     OW46970   1.785   7.466   4.140  0.3520  0.1962 -0.5385
15259SOL    HW146971   1.856   7.467   4.204  0.4810  0.7151 -0.6830
15259SOL    HW246972   1.737   7.547   4.156  0.6110  0.5256 -1.3322
15260SOL     OW46973   4.815   1.564   7.214 -0.0227 -0.2951  0.1924
15260SOL    HW146974   4.787   1.482   7.172  0.2086 -0.7924  0.9937
15260SOL    HW246975   4.733   1.607   7.238 -0.1463 -0.2975 -0.2135
15261SOL     OW46976   0.262   0.242   3.533 -0.4655 -0.1314  0.1894
15261SOL    HW146977   0.208   0.199   3.467  1.7634  0.3621 -2.1315
15261SOL    HW246978   0.263   0.334   3.506 -1.1028  0.4928  2.1355
15262SOL     OW46979   3.538   0.690   3.482  0.3468 -0.3630 -0.7217
15262SOL    HW146980   3.527   0.768   3.537 -0.1715 -1.3507  0.6463
15262SOL    HW246981   3.449   0.655   3.474  0.7734 -1.6678  0.0156
15263SOL     OW46982   3.165   3.524   7.260 -0.2379  0.3604 -0.7441
15263SOL    HW146983   3.097   3.459   7.280 -0.2038  0.3524 -0.6551
15263SOL    HW246984   3.222   3.524   7.337 -1.3228  1.8790  0.1113
15264SOL     OW46985   0.513   1.512   6.703  0.3239  0.0104  0.0626
15264SOL    HW146986   0.581   1.523   6.637  0.2219  0.0150 -0.0404
15264SOL    HW246987   0.488   1.420   6.698  0.9274 -0.2004  0.6851
15265SOL     OW46988   6.254   2.335   0.247  0.8518 -0.4062  0.3490
15265SOL    HW146989   6.324   2.334   0.182  0.8572  1.3735  0.2798
15265SOL    HW246990   6.288   2.389   0.318 -0.5122  0.7119  0.2003
15266SOL     OW46991   7.562   4.996   2.668  1.1163 -0.7380  0.1489
15266SOL    HW146992   7.591   5.087   2.658 -2.3019  0.5344  0.4128
15266SOL    HW246993   7.597   4.951   2.591  0.2847  1.6105 -1.7381
15267SOL     OW46994   0.323   7.032   7.592  0.2997 -0.1764  0.6095
15267SOL    HW146995   0.387   7.103   7.603  0.0007  0.6063 -2.0236
15267SOL    HW246996   0.349   6.988   7.511 -1.2905 -1.1520  0.5771
15268SOL     OW46997   4.405   7.531   1.148  0.2836  0.2337 -0.6880
15268SOL    HW146998   4.368   7.568   1.068 -1.0220  2.1428  0.6930
15268SOL    HW246999   4.329   7.507   1.201  0.9952  1.7775  1.1568
15269SOL     OW47000   8.147   6.259   5.425 -0.3537 -0.0400 -0.3684
15269SOL    HW147001   8.226   6.292   5.381 -0.8089  1.0945 -0.3677
15269SOL    HW247002   8.133   6.172   5.387  2.3845 -1.4630  1.4778
15270SOL     OW47003   5.266   6.351   1.608  0.0239  0.2128 -0.1642
15270SOL    HW147004   5.215   6.429   1.587  2.3576  1.3459 -2.1969
15270SOL    HW247005   5.304   6.369   1.694 -1.0148  0.4101  0.2681
15271SOL     OW47006   2.773   0.013   6.875  0.3558 -0.2069  0.5697
15271SOL    HW147007   2.720   0.085   6.842  1.7506  0.5227 -0.1681
15271SOL    HW247008   2.778   0.027   6.969  0.2270  0.3997  0.4868
15272SOL     OW47009   2.184   1.283   3.737 -0.4270  0.1709 -0.0640
15272SOL    HW147010   2.093   1.315   3.743 -0.0347  1.0976  1.7951
15272SOL    HW247011   2.227   1.346   3.680 -0.4983  0.9954  0.7524
15273SOL     OW47012   6.663   7.379   3.348  0.2977  0.0646 -0.5300
15273SOL    HW147013   6.635   7.287   3.347 -0.0624  0.0338  2.3013
15273SOL    HW247014   6.757   7.375   3.365  0.4225  0.2193 -1.1839
15274SOL     OW47015   6.308   6.635   6.303  0.0469 -0.2080  0.4680
15274SOL    HW147016   6.275   6.621   6.214  1.3828  0.7523 -0.2011
15274SOL    HW247017   6.307   6.548   6.342  2.5024 -1.2968 -1.5914
15275SOL     OW47018   4.225   5.630   1.731  0.0565 -0.3295 -0.3061
15275SOL    HW147019   4.146   5.576   1.726  0.4071 -0.7380 -2.1933
15275SOL    HW247020   4.269   5.617   1.647  1.6604  0.6342  0.3208
15276SOL     OW47021   6.433   5.952   8.502 -0.2786 -0.1737  0.9603
15276SOL    HW147022   6.345   5.940   8.466  0.7191 -0.2994 -1.6206
15276SOL    HW247023   6.472   6.020   8.448  1.5718 -0.8399  1.3881
15277SOL     OW47024   8.436   6.714   2.002  0.2654 -0.5358 -0.5613
15277SOL    HW147025   8.357   6.766   1.984 -1.5161 -2.4530  1.1083
15277SOL    HW247026   8.477   6.758   2.076 -1.6347 -1.7330  1.3338
15278SOL     OW47027   2.615   7.316   1.495 -0.0304 -0.2965  0.1457
15278SOL    HW147028   2.558   7.239   1.498  1.2610 -1.2959 -0.3344
15278SOL    HW247029   2.636   7.327   1.402  2.0113 -1.0696  0.4661
15279SOL     OW47030   4.052   8.503   4.378  0.2415  0.3335 -0.1218
15279SOL    HW147031   4.138   8.464   4.393 -0.1429 -0.1107  1.0068
15279SOL    HW247032   4.070   8.590   4.344  1.1292 -0.3531 -1.4926
15280SOL     OW47033   0.684   6.485   1.303 -0.2071  0.1682  0.1484
15280SOL    HW147034   0.596   6.521   1.314 -0.5978 -1.0335  1.2232
15280SOL    HW247035   0.708   6.453   1.390 -0.1339 -2.6318 -0.8134
15281SOL     OW47036   3.624   0.219   3.681  0.4030 -0.2790 -0.0597
15281SOL    HW147037   3.604   0.141   3.628  0.3921  0.1802 -0.7496
15281SOL    HW247038   3.639   0.288   3.616  3.5603 -0.3898  0.3958
15282SOL     OW47039   7.806   3.713   6.424 -0.5686  0.0529 -0.2125
15282SOL    HW147040   7.839   3.627   6.398  0.8484  0.0101  1.5270
15282SOL    HW247041   7.870   3.775   6.390 -0.5142  0.2498  0.2438
15283SOL     OW47042   6.575   8.412   2.780  0.6630  0.3534  0.4133
15283SOL    HW147043   6.601   8.484   2.838  0.5129  1.0879 -0.4072
15283SOL    HW247044   6.556   8.339   2.839 -2.1538  1.8578  1.5485
15284SOL     OW47045   2.984   5.083   1.901  0.6633 -0.0285 -0.1799
15284SOL    HW147046   3.011   5.114   1.987  1.4704  1.0223 -0.7852
15284SOL    HW247047   3.000   4.988   1.903 -0.0336 -0.1380  1.0629
15285SOL     OW47048   2.621   7.360   4.670 -0.4161 -0.5912 -0.0188
15285SOL    HW147049   2.611   7.276   4.626  0.6775 -0.9261  0.3225
15285SOL    HW247050   2.669   7.415   4.607 -0.5145 -0.4559  0.0237
15286SOL     OW47051   7.184   5.718   7.593  0.6014  0.0823  0.0994
15286SOL    HW147052   7.228   5.763   7.665 -0.1199 -0.4670  0.9024
15286SOL    HW247053   7.119   5.661   7.636 -1.1990  1.1721 -1.0557
15287SOL     OW47054   3.384   1.799   6.650 -0.5017  0.5129 -0.1669
15287SOL    HW147055   3.307   1.820   6.703 -1.1233  0.8104 -1.1517
15287SOL    HW247056   3.381   1.704   6.640  0.9779  0.1415  2.3098
15288SOL     OW47057   4.457   1.872   3.167  0.3294 -0.2065  0.1937
15288SOL    HW147058   4.436   1.806   3.101  0.4181  0.2195 -0.2622
15288SOL    HW247059   4.392   1.857   3.236 -1.1429  0.6897 -0.9170
15289SOL     OW47060   1.306   6.860   5.416  0.4513  0.5929 -0.3542
15289SOL    HW147061   1.373   6.895   5.357  0.4858  0.3997 -0.4310
15289SOL    HW247062   1.250   6.807   5.360 -1.0134  2.3993 -0.7151
15290SOL     OW47063   5.510   5.304   6.036 -0.7810  0.3101  0.4256
15290SOL    HW147064   5.555   5.275   6.115 -2.0285 -0.5658  0.8413
15290SOL    HW247065   5.574   5.358   5.990  1.0465 -1.6401  0.5233
15291SOL     OW47066   3.354   1.267   2.474 -0.1212  0.1958  0.7363
15291SOL    HW147067   3.265   1.285   2.504 -1.2569 -0.4979 -1.8858
15291SOL    HW247068   3.395   1.221   2.547 -1.6440  1.1780  2.2864
15292SOL     OW47069   5.506   2.304   6.691 -0.4542 -0.0704  0.2172
15292SOL    HW147070   5.528   2.325   6.782 -0.8932  1.0121  0.0874
15292SOL    HW247071   5.469   2.385   6.656 -1.6919 -0.9129 -0.5001
15293SOL     OW47072   8.342   8.579   5.471  0.3076  0.9079 -0.4031
15293SOL    HW147073   8.303   8.500   5.508 -2.1236  1.6418 -1.1852
15293SOL    HW247074   8.434   8.574   5.495 -0.3045 -0.7619  1.9887
15294SOL     OW47075   2.014   6.707   4.901 -0.4561  0.6450 -0.0150
15294SOL    HW147076   1.947   6.675   4.962  0.6860  0.4020  1.1304
15294SOL    HW247077   1.977   6.789   4.867 -0.0546  2.1726  2.9550
15295SOL     OW47078   4.758   3.212   5.869 -0.1102 -0.0496  0.5500
15295SOL    HW147079   4.785   3.179   5.955 -1.0865 -1.3745  0.3774
15295SOL    HW247080   4.736   3.134   5.819  0.3401  0.7135 -0.8915
15296SOL     OW47081   8.471   1.257   5.199  0.5198 -0.1270  0.1681
15296SOL    HW147082   8.441   1.194   5.133  1.0657 -0.6478  0.4098
15296SOL    HW247083   8.393   1.307   5.222  0.3608  0.2034 -1.0314
15297SOL     OW47084   7.845   7.162   5.184 -0.6575  0.4173  0.6458
15297SOL    HW147085   7.752   7.140   5.174 -0.5522  0.0735  0.3874
15297SOL    HW247086   7.867   7.135   5.273 -0.7442  0.2677  0.6219
15298SOL     OW47087   0.811   3.982   5.914 -0.3296  0.1364  0.0833
15298SOL    HW147088   0.735   4.030   5.949 -1.2518 -2.1748  1.5626
15298SOL    HW247089   0.773   3.901   5.880  1.4407 -0.9435  0.5832
15299SOL     OW47090   8.434   5.604   7.919  0.1192 -0.6468  0.2648
15299SOL    HW147091   8.443   5.572   8.008 -0.6968 -1.2249  0.1568
15299SOL    HW247092   8.467   5.533   7.864  1.4361  0.0550  0.1232
15300SOL     OW47093   7.175   2.760   7.343  0.1308 -0.5245 -0.3358
15300SOL    HW147094   7.155   2.831   7.404  2.9078  1.1060 -1.1443
15300SOL    HW247095   7.109   2.769   7.274 -1.1950 -0.4880  0.8876
15301SOL     OW47096   7.900   5.994   7.800 -0.6633 -0.5277 -0.0373
15301SOL    HW147097   7.874   5.935   7.871 -1.6740  1.1943  1.0861
15301SOL    HW247098   7.995   5.984   7.796 -0.7433 -1.7885  0.5102
15302SOL     OW47099   4.061   6.872   0.237 -0.5397  0.4350 -0.6597
15302SOL    HW147100   4.151   6.905   0.228 -1.3976  2.6000 -2.3010
15302SOL    HW247101   4.071   6.778   0.252  1.9929  0.1771 -3.0917
15303SOL     OW47102   0.022   6.392   2.761 -0.3301 -0.4733  0.2823
15303SOL    HW147103   0.024   6.360   2.851 -2.3595  1.3771  1.0798
15303SOL    HW247104  -0.070   6.410   2.744  0.1495  0.3891 -1.7381
15304SOL     OW47105   0.519   3.367   6.055 -0.2720 -0.4123  0.4733
15304SOL    HW147106   0.580   3.361   5.981 -0.4212  0.7538  0.2345
15304SOL    HW247107   0.556   3.308   6.121  0.3429 -0.7972 -0.1898
15305SOL     OW47108   7.814   3.144   0.828  0.7187  0.1934  0.3723
15305SOL    HW147109   7.777   3.059   0.850  1.0534  0.2609  1.2521
15305SOL    HW247110   7.738   3.203   0.829  0.5749  0.0121  0.3671
15306SOL     OW47111   5.016   3.958   0.552 -0.4357  0.1879 -0.4144
15306SOL    HW147112   5.088   3.969   0.613  0.8213  0.3555 -1.8675
15306SOL    HW247113   4.947   3.916   0.603  1.0102 -0.8070  0.7926
15307SOL     OW47114   2.000   6.399   1.968 -0.0749 -0.1630 -0.0449
15307SOL    HW147115   1.966   6.363   1.886  0.5369 -2.6525  0.7217
15307SOL    HW247116   1.952   6.353   2.037  1.8458 -0.6961  1.0079
15308SOL     OW47117   1.240   1.660   0.986 -0.2509 -0.0373  0.7065
15308SOL    HW147118   1.325   1.704   0.996 -0.4582  0.3698  0.7019
15308SOL    HW247119   1.179   1.716   1.033 -0.0206 -1.9562  3.5176
15309SOL     OW47120   4.516   7.258   1.198  0.0257  0.1963  0.1515
15309SOL    HW147121   4.421   7.249   1.198  0.1874 -2.1612  1.3544
15309SOL    HW247122   4.538   7.281   1.288  0.6253  0.5040 -0.0680
15310SOL     OW47123   7.510   4.127   2.969 -0.1563  0.3595  0.0788
15310SOL    HW147124   7.440   4.181   3.007  0.4564  2.1740 -1.2182
15310SOL    HW247125   7.575   4.121   3.039 -0.6350  0.5389  0.5492
15311SOL     OW47126   8.039   3.540   0.709  0.0399 -0.2824 -0.3398
15311SOL    HW147127   8.106   3.484   0.750  0.9129  0.7468 -0.2875
15311SOL    HW247128   8.090   3.609   0.667 -0.9905  0.2168 -0.7811
15312SOL     OW47129   4.984   4.627   8.479  0.0631 -0.2739 -0.1536
15312SOL    HW147130   4.933   4.564   8.427  0.8569 -0.7532 -0.3674
15312SOL    HW247131   5.061   4.645   8.425  0.4731 -0.1058  0.4822
15313SOL     OW47132   7.702   6.935   1.667 -0.0697  0.3550 -0.5632
15313SOL    HW147133   7.707   6.869   1.599  1.1995  0.6391 -0.7590
15313SOL    HW247134   7.772   6.912   1.729  0.3952  1.5057 -0.6374
15314SOL     OW47135   0.571   0.401   2.616  0.1637 -0.6497  0.0163
15314SOL    HW147136   0.503   0.335   2.605  1.0683 -1.4212 -1.1719
15314SOL    HW247137   0.650   0.352   2.637  0.4325  0.2133  1.1332
15315SOL     OW47138   3.396   1.268   3.761  0.5075  0.2436  0.4095
15315SOL    HW147139   3.387   1.278   3.666  0.0294 -0.3423  0.3866
15315SOL    HW247140   3.429   1.352   3.791  1.5123  0.1554 -0.3866
15316SOL     OW47141   3.908   1.352   4.714  0.8192  0.0759 -0.7342
15316SOL    HW147142   3.947   1.346   4.802 -0.3354 -0.2887 -0.2196
15316SOL    HW247143   3.936   1.272   4.670 -1.4376 -1.5671  0.5614
15317SOL     OW47144   3.039   4.057   7.116  0.2893  0.2125  0.5318
15317SOL    HW147145   3.076   4.143   7.134  0.0152  0.2531  0.9198
15317SOL    HW247146   2.960   4.053   7.169  1.6512 -1.2758  2.6123
15318SOL     OW47147   3.709   7.698   6.949 -0.4559  1.0061  0.4060
15318SOL    HW147148   3.782   7.724   6.893 -1.4326  0.7507 -1.0614
15318SOL    HW247149   3.743   7.627   7.002 -0.2211 -0.8176 -1.9795
15319SOL     OW47150   1.560   5.846   0.985  0.2583 -0.2072 -0.3493
15319SOL    HW147151   1.596   5.934   0.997  0.6141 -0.3631 -0.2789
15319SOL    HW247152   1.465   5.860   0.979  0.1261  0.0172  1.5451
15320SOL     OW47153   3.327   8.181   4.368 -0.4965  0.1296 -0.3359
15320SOL    HW147154   3.312   8.113   4.302  1.8903  0.1854 -1.0503
15320SOL    HW247155   3.419   8.204   4.357  0.0981 -0.0521  3.2693
15321SOL     OW47156   5.494   8.380   0.617  0.0036  0.3296 -0.3849
15321SOL    HW147157   5.576   8.399   0.661 -1.7600  1.8139  2.5869
15321SOL    HW247158   5.487   8.284   0.620  1.3589  0.2176 -0.2048
15322SOL     OW47159   4.904   1.211   2.201 -0.4991  0.1304  0.7883
15322SOL    HW147160   4.833   1.152   2.227  0.2910 -0.9422  0.5783
15322SOL    HW247161   4.976   1.190   2.260 -0.2020  0.8926  0.7091
15323SOL     OW47162   0.906   6.259   2.172 -0.2840 -0.0506  0.6839
15323SOL    HW147163   0.851   6.256   2.250 -0.0057  0.5519  0.9089
15323SOL    HW247164   0.940   6.349   2.170  0.7769 -0.4354  0.6132
15324SOL     OW47165   5.175   4.675   4.680 -0.0463 -0.1400 -0.0548
15324SOL    HW147166   5.151   4.688   4.772 -0.9343  1.4041 -0.4653
15324SOL    HW247167   5.117   4.606   4.649  0.6526 -1.0816  0.6697
15325SOL     OW47168   6.655   3.481   1.371 -0.6198 -0.3157  0.4541
15325SOL    HW147169   6.702   3.404   1.341 -0.0880  0.7256 -1.5277
15325SOL    HW247170   6.577   3.485   1.316  0.3598  1.6203 -0.8916
15326SOL     OW47171   1.221   5.494   6.558 -0.0409  0.1109  0.3062
15326SOL    HW147172   1.126   5.483   6.558  0.0536 -1.7513 -2.7023
15326SOL    HW247173   1.240   5.542   6.478  1.6537 -1.1677 -0.1233
15327SOL     OW47174   7.810   4.686   1.703  0.2357 -0.3927 -0.3461
15327SOL    HW147175   7.726   4.674   1.746  0.0778 -0.3797 -0.6537
15327SOL    HW247176   7.839   4.773   1.730 -0.8761  0.5411 -1.9873
15328SOL     OW47177   0.050   4.581   6.891  0.1200  0.2776 -0.0061
15328SOL    HW147178   0.091   4.642   6.829  0.4179 -0.7154 -0.8260
15328SOL    HW247179   0.116   4.569   6.959  0.9266 -0.7239 -0.9263
15329SOL     OW47180   2.075   3.296   1.122 -0.2978 -0.0743 -0.2839
15329SOL    HW147181   2.008   3.359   1.150 -1.0175 -0.8448 -0.2571
15329SOL    HW247182   2.150   3.315   1.179 -1.2294 -0.6175  1.1706
15330SOL     OW47183   6.773   0.931   1.950 -0.2071  0.5522  0.0792
15330SOL    HW147184   6.679   0.944   1.962 -0.0734  1.8156 -0.1389
15330SOL    HW247185   6.784   0.913   1.857 -0.2946 -0.3314  0.2279
15331SOL     OW47186   4.104   6.338   3.743  0.2729 -0.0710  0.1030
15331SOL    HW147187   4.144   6.363   3.827  0.6258 -0.5985  0.0982
15331SOL    HW247188   4.178   6.307   3.690 -0.2462 -2.0561  0.4546
15332SOL     OW47189   5.480   2.129   5.570  0.3769 -0.9369  0.1016
15332SOL    HW147190   5.502   2.076   5.494 -0.4033  0.5149 -1.1887
15332SOL    HW247191   5.433   2.205   5.534 -0.2588 -0.3456  2.0495
15333SOL     OW47192   7.497   4.012   1.763 -0.2205 -0.5360 -0.2622
15333SOL    HW147193   7.413   4.055   1.772 -0.2903 -0.2585 -1.8711
15333SOL    HW247194   7.547   4.040   1.839 -1.1746  0.2498  0.0931
15334SOL     OW47195   4.268   4.145   4.410  0.4831  0.4543  0.5159
15334SOL    HW147196   4.265   4.202   4.333 -2.3589  0.3416  0.4260
15334SOL    HW247197   4.293   4.203   4.482  2.4214  0.7151 -0.3000
15335SOL     OW47198   8.037   2.928   5.187  0.8211 -0.2746 -0.1448
15335SOL    HW147199   7.954   2.882   5.198  0.5665  0.6196  2.4137
15335SOL    HW247200   8.037   2.956   5.095 -1.5547 -0.5572 -0.3061
15336SOL     OW47201   7.032   1.651   3.520 -0.8338  0.7923 -0.4226
15336SOL    HW147202   6.947   1.680   3.552 -0.2225  3.5566 -1.0470
15336SOL    HW247203   7.064   1.724   3.468  1.5459 -0.5326 -0.9496
15337SOL     OW47204   2.301   0.376   6.784 -0.2871 -0.6074  0.4628
15337SOL    HW147205   2.326   0.452   6.836  0.6051  0.6136 -1.6462
15337SOL    HW247206   2.209   0.391   6.761 -0.2539 -0.4108  0.4591
15338SOL     OW47207   0.703   6.317   7.548  0.4380 -0.4365 -0.0379
15338SOL    HW147208   0.660   6.265   7.480 -0.1676  1.9473 -1.5641
15338SOL    HW247209   0.657   6.293   7.628 -2.2167  0.2404 -1.2533
15339SOL     OW47210   3.211   3.774   3.351  0.1195  0.1362  0.1276
15339SOL    HW147211   3.139   3.716   3.376  0.6114 -0.9766 -0.9428
15339SOL    HW247212   3.258   3.789   3.433 -0.8510  0.2193  0.6923
15340SOL     OW47213   1.945   4.511   1.285 -0.0831 -0.2698 -0.1589
15340SOL    HW147214   1.991   4.556   1.214 -1.4941  2.3979  0.4896
15340SOL    HW247215   1.906   4.434   1.244 -0.0338  0.6705 -2.0573
15341SOL     OW47216   0.985   6.197   6.127 -0.0937  0.1168  0.3888
15341SOL    HW147217   0.913   6.135   6.143  0.1375 -0.1330  0.4700
15341SOL    HW247218   1.041   6.189   6.205 -0.3659  0.8507  0.6649
15342SOL     OW47219   0.678   8.187   5.208  0.3340  0.5631  0.0871
15342SOL    HW147220   0.762   8.184   5.254 -0.3017 -0.4684  1.2221
15342SOL    HW247221   0.650   8.096   5.203 -1.4243  1.0257  1.0638
15343SOL     OW47222   2.317   0.143   6.101 -0.5100  0.2128  0.3883
15343SOL    HW147223   2.395   0.198   6.099 -0.0542 -0.4293  0.1320
15343SOL    HW247224   2.257   0.184   6.039  1.0308 -1.3032 -2.2949
15344SOL     OW47225   6.280   1.751   0.799 -0.3750  0.2487 -0.0189
15344SOL    HW147226   6.261   1.798   0.880 -1.6120  1.1517 -0.7927
15344SOL    HW247227   6.227   1.796   0.733  0.7813 -0.3250 -1.3687
15345SOL     OW47228   4.329   5.252   6.443 -0.0094  0.5337  0.4465
15345SOL    HW147229   4.303   5.329   6.494  0.1079  2.4528 -2.2089
15345SOL    HW247230   4.257   5.239   6.381  0.0124 -1.4922  0.7753
15346SOL     OW47231   0.715   3.074   6.367  0.0604 -0.5388  0.5548
15346SOL    HW147232   0.735   3.041   6.280 -2.1487  2.6502 -1.3879
15346SOL    HW247233   0.642   3.019   6.397 -0.4000 -0.4994 -0.4602
15347SOL     OW47234   1.550   2.314   0.009  0.0870  0.5695  0.2891
15347SOL    HW147235   1.569   2.303   0.102 -0.1561 -1.6477  0.1283
15347SOL    HW247236   1.497   2.238  -0.014  0.7506  0.6817 -1.8214
15348SOL     OW47237   2.848   3.373   4.513 -0.1964  0.4213 -0.6830
15348SOL    HW147238   2.763   3.391   4.553 -0.4833 -0.3432 -0.9326
15348SOL    HW247239   2.903   3.447   4.540 -0.1616 -0.4262  1.7880
15349SOL     OW47240   5.512   1.066   0.035  0.4507  0.0546  0.1131
15349SOL    HW147241   5.532   0.973   0.046  0.6354 -0.2621 -2.2707
15349SOL    HW247242   5.447   1.069  -0.035  1.3203  1.7620 -0.7020
15350SOL     OW47243   6.761   5.354   3.448  0.2359 -0.0868  0.5920
15350SOL    HW147244   6.801   5.389   3.368  0.0246  0.6198  0.7868
15350SOL    HW247245   6.805   5.401   3.519  0.9424 -1.2348  0.9383
15351SOL     OW47246   3.886   0.782   3.565 -0.7685  0.0485 -0.5062
15351SOL    HW147247   3.868   0.759   3.657 -0.5952 -0.3020 -0.5586
15351SOL    HW247248   3.921   0.702   3.527 -2.6502 -0.3876 -1.3917
15352SOL     OW47249   1.919   5.184   1.086 -0.5400 -0.5006  0.1999
15352SOL    HW147250   1.825   5.171   1.090 -0.4315 -1.4352  0.0997
15352SOL    HW247251   1.955   5.095   1.084  0.3586 -0.1603  0.6418
15353SOL     OW47252   2.666   1.414   5.829 -0.5293 -0.0041  0.8685
15353SOL    HW147253   2.709   1.488   5.873 -0.9127  0.0024  1.2371
15353SOL    HW247254   2.735   1.350   5.815  1.0900  2.3074 -3.8977
15354SOL     OW47255   3.953   1.482   5.588 -0.2288  0.5513 -0.4014
15354SOL    HW147256   3.860   1.464   5.602  0.4975 -1.4525  3.0117
15354SOL    HW247257   3.966   1.570   5.624 -0.8841  1.1070 -1.4946
15355SOL     OW47258   4.009   0.452   1.071 -0.0345 -0.3052 -0.3526
15355SOL    HW147259   3.922   0.481   1.100  0.5211  0.4030  0.6565
15355SOL    HW247260   4.017   0.484   0.982 -0.6761 -0.0905 -0.3372
15356SOL     OW47261   0.121   6.606   4.122 -0.2203 -0.2639 -0.1601
15356SOL    HW147262   0.104   6.637   4.211  1.0103 -0.3537  0.1305
15356SOL    HW247263   0.217   6.600   4.117 -0.2368  0.2808 -1.6751
15357SOL     OW47264   3.350   3.770   8.465  0.6373  0.4752  0.1237
15357SOL    HW147265   3.278   3.767   8.402 -0.7035  0.8424  1.5773
15357SOL    HW247266   3.428   3.786   8.412 -0.7811  3.6824 -1.2563
15358SOL     OW47267   2.064   3.633   2.775 -0.1959 -0.5456  0.1223
15358SOL    HW147268   2.023   3.629   2.861 -0.1455 -0.0640  0.1740
15358SOL    HW247269   2.152   3.665   2.791  0.0461 -1.1232 -0.0393
15359SOL     OW47270   4.539   5.158   0.948 -0.3076 -0.4497 -0.1553
15359SOL    HW147271   4.588   5.173   0.867  0.9478  0.4369  0.7307
15359SOL    HW247272   4.474   5.229   0.950  0.4108  0.2193  0.1482
15360SOL     OW47273   1.673   1.924   3.004 -0.2135 -0.0753  0.2223
15360SOL    HW147274   1.687   2.016   3.026 -1.1385  0.4195 -1.1347
15360SOL    HW247275   1.618   1.890   3.075 -0.2557  0.5403  0.4891
15361SOL     OW47276   7.331   5.301   2.520  0.5930  0.4803  0.1462
15361SOL    HW147277   7.256   5.361   2.525  0.6438  0.4917  1.1418
15361SOL    HW247278   7.381   5.320   2.599  1.7867  0.6403 -0.6367
15362SOL     OW47279   6.280   1.608   4.216 -0.0233  0.3496  0.1295
15362SOL    HW147280   6.351   1.550   4.189  0.5522  0.2203  1.8068
15362SOL    HW247281   6.207   1.549   4.235 -0.5413  0.4655 -1.3707
15363SOL     OW47282   0.449   6.196   2.144  0.1971 -0.1149 -0.1003
15363SOL    HW147283   0.532   6.161   2.110  0.6374  0.4397  0.3920
15363SOL    HW247284   0.445   6.285   2.110 -0.0292 -0.0194  0.1742
15364SOL     OW47285   3.810   1.019   2.296  0.4148  0.1645  0.3958
15364SOL    HW147286   3.839   1.087   2.235  2.2178 -0.1207  0.8829
15364SOL    HW247287   3.789   1.067   2.376 -0.7142  0.3909 -0.0113
15365SOL     OW47288   1.722   1.381   0.756 -0.3275 -0.0322 -0.0784
15365SOL    HW147289   1.674   1.450   0.712 -1.5611  0.3440  1.7396
15365SOL    HW247290   1.682   1.300   0.724 -1.4839  0.2452  0.6332
15366SOL     OW47291   2.554   6.686   3.005 -0.2313  0.1684  0.2567
15366SOL    HW147292   2.524   6.595   3.002  0.4198 -0.1876  2.4095
15366SOL    HW247293   2.474   6.737   3.016 -0.4307 -0.4581  2.1906
15367SOL     OW47294   4.509   7.828   7.457  0.0726 -0.0774  0.0595
15367SOL    HW147295   4.535   7.769   7.528 -1.4420 -0.1538  0.5879
15367SOL    HW247296   4.542   7.785   7.378 -0.2235 -1.1931  0.5182
15368SOL     OW47297   3.448   7.467   8.207  1.0294 -0.1395 -0.0268
15368SOL    HW147298   3.490   7.466   8.121  0.0727 -2.4365 -0.5533
15368SOL    HW247299   3.471   7.382   8.246 -1.5864 -0.7773  0.3724
15369SOL     OW47300   4.672   3.120   1.267  0.5542  0.5849 -0.2663
15369SOL    HW147301   4.580   3.142   1.282  0.3543  0.0950 -0.7531
15369SOL    HW247302   4.709   3.115   1.355 -0.0624  0.0283 -0.0250
15370SOL     OW47303   2.353   7.690   0.379 -0.4374  0.1839 -0.5094
15370SOL    HW147304   2.265   7.708   0.413 -0.5895  1.1356 -1.3641
15370SOL    HW247305   2.357   7.594   0.373 -1.0009  0.0752  0.5783
15371SOL     OW47306   3.166   3.177   0.897 -0.1487 -0.4142  0.1672
15371SOL    HW147307   3.213   3.221   0.967 -0.9751 -1.9422  1.7683
15371SOL    HW247308   3.222   3.186   0.820  0.2717  2.2725  0.6969
15372SOL     OW47309   3.138   6.813   8.475  0.5841 -0.2560  0.3064
15372SOL    HW147310   3.069   6.864   8.433  0.7299  0.3476  0.7881
15372SOL    HW247311   3.091   6.739   8.514  0.3632 -0.4598 -0.3320
15373SOL     OW47312   7.968   3.971   5.413  0.5570  0.0910  1.2710
15373SOL    HW147313   7.905   3.960   5.483 -1.3654 -1.1610 -0.5380
15373SOL    HW247314   7.921   4.017   5.344  1.7039 -0.5545 -0.0039
15374SOL     OW47315   4.070   6.019   1.301 -0.5823  0.4689  0.0615
15374SOL    HW147316   4.091   5.983   1.388  0.8807 -0.4037 -0.6166
15374SOL    HW247317   4.011   5.956   1.262 -1.2428  0.8627  0.4069
15375SOL     OW47318   5.074   2.945   6.031  0.2007  0.1465  0.0675
15375SOL    HW147319   5.153   2.952   6.086  0.7450 -2.4209 -0.2279
15375SOL    HW247320   5.104   2.969   5.943 -0.1679  2.2323  0.4641
15376SOL     OW47321   8.319   3.193   3.681  0.7215  0.2080 -0.4304
15376SOL    HW147322   8.316   3.193   3.777 -0.1400  1.2485 -0.4456
15376SOL    HW247323   8.412   3.202   3.660  0.8777  0.3732  0.2981
15377SOL     OW47324   1.781   3.785   6.835 -0.3895  0.3074  0.3901
15377SOL    HW147325   1.709   3.723   6.847  1.2152 -1.7599  0.0616
15377SOL    HW247326   1.825   3.787   6.920  1.6736 -1.9596 -0.4825
15378SOL     OW47327   5.092   8.195   8.240 -0.3741 -0.0478  0.2600
15378SOL    HW147328   5.111   8.101   8.247  0.2441  0.1615  1.8004
15378SOL    HW247329   5.175   8.238   8.258 -0.4341  0.8212 -1.3344
15379SOL     OW47330   3.136   4.596   1.782 -0.1527  0.8606 -0.2286
15379SOL    HW147331   3.110   4.565   1.869 -1.0896  1.2038 -0.3692
15379SOL    HW247332   3.057   4.586   1.729  0.2596  1.1380 -0.9099
15380SOL     OW47333   3.318   3.095   7.927  0.1132  0.2068 -0.9036
15380SOL    HW147334   3.400   3.053   7.901 -0.7081 -1.2954 -1.1488
15380SOL    HW247335   3.293   3.051   8.008 -2.4508 -2.2145 -2.8587
15381SOL     OW47336   4.979   2.970   2.323 -0.0655  0.0285 -0.0113
15381SOL    HW147337   4.910   2.968   2.257  0.5336 -0.7372 -0.6391
15381SOL    HW247338   4.933   2.971   2.407 -0.8509  1.5338 -0.4223
15382SOL     OW47339   1.487   2.038   5.638  0.1199 -0.0839  0.4094
15382SOL    HW147340   1.582   2.047   5.635  0.1645 -0.3463  0.9065
15382SOL    HW247341   1.454   2.118   5.597  0.5458  0.4606  1.1085
15383SOL     OW47342   8.019   4.678   0.421 -0.2976  0.2520  0.6169
15383SOL    HW147343   7.952   4.619   0.388 -0.5044  0.4199  0.7296
15383SOL    HW247344   8.034   4.741   0.350 -0.5108  0.4221  0.7238
15384SOL     OW47345   0.675   8.245   6.501 -0.2102  0.1625  0.2330
15384SOL    HW147346   0.645   8.298   6.426  0.2966 -0.7817 -0.6671
15384SOL    HW247347   0.702   8.309   6.567 -1.8106  1.0290  0.0948
15385SOL     OW47348   5.391   4.476   0.004 -0.5171  0.4526  0.7361
15385SOL    HW147349   5.438   4.507   0.081  0.3432 -1.5813  1.0884
15385SOL    HW247350   5.355   4.391   0.030 -0.0091 -0.3899 -1.1467
15386SOL     OW47351   2.666   2.458   8.370 -0.4721  0.2232 -0.8216
15386SOL    HW147352   2.661   2.381   8.313  0.4307 -0.7786  0.3813
15386SOL    HW247353   2.588   2.509   8.350 -1.0095 -0.9292 -1.7574
15387SOL     OW47354   4.921   5.852   0.026  0.5202  0.2521  0.4962
15387SOL    HW147355   4.842   5.854   0.081  0.3762 -1.6120  0.4370
15387SOL    HW247356   4.980   5.916   0.066  0.6174 -1.3581  3.1742
15388SOL     OW47357   4.487   6.795   3.278 -0.6191 -0.1598  0.7925
15388SOL    HW147358   4.437   6.857   3.332 -1.7238  0.4036 -0.7948
15388SOL    HW247359   4.423   6.762   3.215  0.4633 -1.3297  0.2675
15389SOL     OW47360   4.122   6.109   0.137 -0.1871 -0.3174  0.6244
15389SOL    HW147361   4.050   6.046   0.130  0.2246 -0.7876  0.5272
15389SOL    HW247362   4.134   6.121   0.231  0.4507 -1.2364  0.6752
15390SOL     OW47363   5.887   0.266   6.832 -0.4779 -0.2819  0.1299
15390SOL    HW147364   5.807   0.288   6.879  0.1841  0.4723  0.9432
15390SOL    HW247365   5.892   0.171   6.834 -0.9617 -0.2951  0.7336
15391SOL     OW47366   1.552   1.195   7.928 -0.0676 -0.0865  0.1889
15391SOL    HW147367   1.609   1.180   8.003 -1.0259 -1.9261  0.6056
15391SOL    HW247368   1.579   1.280   7.894  1.1648  0.2571  1.9071
15392SOL     OW47369   7.811   7.194   3.630 -0.2253  0.2842  0.6169
15392SOL    HW147370   7.779   7.264   3.573  1.2948  0.7556  0.2890
15392SOL    HW247371   7.826   7.237   3.715  2.1578  0.7985  0.0170
15393SOL     OW47372   3.272   2.476   2.238  0.1498  0.1270  1.1318
15393SOL    HW147373   3.202   2.431   2.284 -0.9381  1.1628  0.5366
15393SOL    HW247374   3.279   2.431   2.154  0.8475 -0.5609  1.5459
15394SOL     OW47375   5.553   2.243   4.478  0.2026  0.4966 -0.2735
15394SOL    HW147376   5.489   2.218   4.412 -1.5291 -1.7888  2.0703
15394SOL    HW247377   5.635   2.203   4.450 -0.4448 -0.2350 -1.1293
15395SOL     OW47378   8.400   2.889   0.682  0.3748 -0.4648 -0.0539
15395SOL    HW147379   8.324   2.860   0.632 -0.5040  1.1213  0.2676
15395SOL    HW247380   8.408   2.982   0.661 -0.2890  0.4077  2.9651
15396SOL     OW47381   8.190   3.330   7.047  0.3648  0.3443 -0.2005
15396SOL    HW147382   8.215   3.297   7.133 -0.7323 -0.0612 -0.0162
15396SOL    HW247383   8.269   3.371   7.012  0.3062  2.3951  1.8716
15397SOL     OW47384   5.905   2.175   1.931 -0.1334  0.1067  0.5829
15397SOL    HW147385   5.878   2.231   2.004 -1.4505  0.9234 -0.4909
15397SOL    HW247386   5.825   2.134   1.900  0.4916 -0.6744 -0.0546
15398SOL     OW47387   1.355   7.649   5.678  0.1357  0.5643  0.5020
15398SOL    HW147388   1.299   7.576   5.654  1.5826 -0.1862 -0.7360
15398SOL    HW247389   1.383   7.630   5.768 -0.4690  0.2441  0.6257
15399SOL     OW47390   8.485   5.586   4.794  0.7869 -0.1988  0.6989
15399SOL    HW147391   8.552   5.535   4.839  1.5123 -0.7931 -0.9702
15399SOL    HW247392   8.509   5.677   4.810  3.1445 -0.3555 -1.3512
15400SOL     OW47393   0.227   4.433   0.870  0.4094  0.3224 -0.4772
15400SOL    HW147394   0.247   4.423   0.963  0.2728  0.7333 -0.4028
15400SOL    HW247395   0.160   4.368   0.852  2.2799 -1.6309 -0.8961
15401SOL     OW47396   4.333   8.159   1.609  0.0358 -0.3937  0.3153
15401SOL    HW147397   4.357   8.250   1.621 -0.9497 -0.1824  0.7273
15401SOL    HW247398   4.257   8.161   1.551 -1.3104 -0.7884  1.9771
15402SOL     OW47399   0.814   2.021   0.730 -0.0032  0.1783 -0.4375
15402SOL    HW147400   0.770   2.097   0.690  3.1252  1.7604 -1.1788
15402SOL    HW247401   0.856   2.056   0.809  0.1845 -1.1817  0.0914
15403SOL     OW47402   3.771   1.903   3.382 -0.5640 -0.1014 -0.3238
15403SOL    HW147403   3.685   1.868   3.357 -1.4824  1.1773  0.8446
15403SOL    HW247404   3.833   1.836   3.355 -1.8628 -0.7978 -1.7671
15404SOL     OW47405   0.500   7.277   4.448  0.0437 -0.3185 -0.6335
15404SOL    HW147406   0.537   7.294   4.534 -0.5478  0.3202 -0.4972
15404SOL    HW247407   0.407   7.261   4.464  0.2105 -1.8763 -0.9717
15405SOL     OW47408   2.930   4.921   4.971 -0.1380 -0.6275  0.2520
15405SOL    HW147409   2.932   4.901   4.877 -1.8562 -1.8165  0.4282
15405SOL    HW247410   2.925   5.017   4.974 -0.2150 -0.5749 -0.8717
15406SOL     OW47411   5.782   2.198   7.400  0.1306 -0.0265  0.3718
15406SOL    HW147412   5.752   2.118   7.356  0.5012 -0.0117  0.0833
15406SOL    HW247413   5.876   2.185   7.412 -0.0227 -0.1846  1.5062
15407SOL     OW47414   5.760   1.784   7.720  0.2980  0.2268 -0.4912
15407SOL    HW147415   5.764   1.862   7.665 -1.5673  0.1887 -0.7484
15407SOL    HW247416   5.744   1.818   7.808  1.2363  0.1924 -0.2966
15408SOL     OW47417   4.107   8.046   6.571  0.2331  0.4608 -0.1879
15408SOL    HW147418   4.021   8.085   6.558 -0.4275 -0.3705  1.3544
15408SOL    HW247419   4.147   8.045   6.485 -1.2403  1.0230 -0.9053
15409SOL     OW47420   2.850   1.580   7.340 -0.5132 -0.0639 -0.3885
15409SOL    HW147421   2.832   1.641   7.269  0.0815  2.0049  1.1647
15409SOL    HW247422   2.922   1.619   7.389 -0.9548 -1.3625  1.4343
15410SOL     OW47423   1.004   6.182   1.908 -0.5191  0.3878  0.8119
15410SOL    HW147424   1.045   6.268   1.895  0.7875 -0.3126  0.0393
15410SOL    HW247425   0.975   6.182   1.999 -1.3666  1.9777  0.5742
15411SOL     OW47426   4.230   5.921   7.293 -0.5599 -0.1636 -0.2518
15411SOL    HW147427   4.240   5.875   7.210 -0.3769  2.2370 -1.6762
15411SOL    HW247428   4.135   5.927   7.306 -0.6031 -2.4193  0.9177
15412SOL     OW47429   4.422   4.268   1.659 -0.1457 -0.3337 -0.0433
15412SOL    HW147430   4.512   4.244   1.679 -0.4627  0.2045  2.3212
15412SOL    HW247431   4.422   4.364   1.657 -0.9706 -0.2617  1.8092
15413SOL     OW47432   2.487   4.996   2.459  0.1169  0.8986 -0.1866
15413SOL    HW147433   2.459   4.913   2.421 -1.8516  0.3657  2.1262
15413SOL    HW247434   2.571   5.015   2.418 -0.1099 -1.4376 -1.9131
15414SOL     OW47435   4.332   8.473   1.598  0.0313  0.0271  0.3540
15414SOL    HW147436   4.357   8.508   1.513 -0.0796 -1.3758 -0.2961
15414SOL    HW247437   4.272   8.538   1.635  0.4332  0.8643 -0.4374
15415SOL     OW47438   3.721   5.063   1.216  0.0614 -0.3992  0.3371
15415SOL    HW147439   3.743   5.127   1.147 -1.7784  0.8882  0.8901
15415SOL    HW247440   3.697   5.116   1.291  0.4948 -1.7981  1.5120
15416SOL     OW47441   4.696   6.997   1.359 -0.1337  0.5530  0.2839
15416SOL    HW147442   4.747   7.077   1.351 -0.3581  0.7316  0.6151
15416SOL    HW247443   4.664   6.979   1.270  0.5265  0.4228  0.0709
15417SOL     OW47444   7.107   0.509   2.755 -0.1868  0.0626  0.0630
15417SOL    HW147445   7.077   0.522   2.845  1.4888  0.9416  0.5359
15417SOL    HW247446   7.165   0.582   2.738 -0.5029 -0.0645 -1.7849
15418SOL     OW47447   3.638   2.365   3.025  0.0191  0.6817  0.5796
15418SOL    HW147448   3.549   2.402   3.019  0.8988  3.1604  1.5667
15418SOL    HW247449   3.627   2.288   3.081 -1.6354  0.3927 -0.0592
15419SOL     OW47450   7.327   4.529   0.637  0.0954  0.4790 -0.0461
15419SOL    HW147451   7.340   4.622   0.619 -0.0056  0.0900 -2.4159
15419SOL    HW247452   7.415   4.491   0.630  0.0267  0.2761  0.1661
15420SOL     OW47453   3.940   3.397   7.243 -0.2329 -0.2641  0.5880
15420SOL    HW147454   3.985   3.443   7.314  1.7614  0.7918 -1.2639
15420SOL    HW247455   3.892   3.465   7.196  0.0390 -0.6060 -0.2014
15421SOL     OW47456   1.439   4.426   7.010  0.1505 -0.0361 -0.0873
15421SOL    HW147457   1.508   4.436   7.075 -1.5061  2.4159  1.4727
15421SOL    HW247458   1.480   4.452   6.927  1.3839  0.2458  0.5933
15422SOL     OW47459   6.680   4.594   4.007  0.0012 -0.3159 -0.7339
15422SOL    HW147460   6.693   4.657   4.078 -0.2124  0.0824 -1.0391
15422SOL    HW247461   6.763   4.594   3.959 -0.2264  0.2565 -1.1389
15423SOL     OW47462   3.742   4.926   0.963 -0.4748  0.0732 -0.1355
15423SOL    HW147463   3.811   4.991   0.974 -0.6107  0.3984 -1.1120
15423SOL    HW247464   3.684   4.940   1.038  1.4873 -1.4894  1.7790
15424SOL     OW47465   3.501   2.596   2.067 -0.7738 -0.2359 -0.3651
15424SOL    HW147466   3.424   2.649   2.087 -1.0242 -0.5329 -0.5195
15424SOL    HW247467   3.481   2.557   1.982  0.2048  0.8828 -1.1360
15425SOL     OW47468   6.550   2.667   2.038 -0.4493 -0.3163  0.4758
15425SOL    HW147469   6.585   2.601   1.978 -2.0633 -0.4151 -0.3969
15425SOL    HW247470   6.601   2.655   2.118  0.9778 -0.9441 -0.4833
15426SOL     OW47471   0.814   1.406   8.189 -0.1725  0.0730  1.1146
15426SOL    HW147472   0.907   1.424   8.176  0.3499 -2.4152  0.9659
15426SOL    HW247473   0.769   1.474   8.138  1.5726  0.4101 -0.0684
15427SOL     OW47474   2.742   2.929   3.882  0.6396  0.2321 -0.1322
15427SOL    HW147475   2.727   2.897   3.971 -0.8957 -1.9863 -1.1206
15427SOL    HW247476   2.723   3.023   3.887 -1.3890 -0.1955  1.4611
15428SOL     OW47477   5.880   3.266   1.633  0.4745  0.7319  0.6767
15428SOL    HW147478   5.798   3.303   1.667 -0.2662 -0.5963  0.3831
15428SOL    HW247479   5.945   3.334   1.652 -0.1235  0.6594  3.5111
15429SOL     OW47480   5.784   7.991   3.812  0.8431 -0.1765  0.3248
15429SOL    HW147481   5.724   7.945   3.754 -0.5885  1.3363  0.5344
15429SOL    HW247482   5.816   8.065   3.759  0.8547  0.2420  0.9061
15430SOL     OW47483   0.846   4.258   3.052  0.2133  0.0410  0.1341
15430SOL    HW147484   0.866   4.249   2.959 -0.4970 -2.8786  0.1481
15430SOL    HW247485   0.919   4.309   3.087  1.9714 -1.1292 -1.5851
15431SOL     OW47486   6.988   3.926   2.399  0.2997 -1.1138 -0.2708
15431SOL    HW147487   7.018   3.948   2.311 -0.5895 -0.0078 -0.3162
15431SOL    HW247488   6.894   3.939   2.397  0.4387  0.4998  1.2723
15432SOL     OW47489   3.385   0.241   6.186 -0.1838 -0.1196  0.5308
15432SOL    HW147490   3.330   0.175   6.144 -0.6152  0.9295 -0.5959
15432SOL    HW247491   3.447   0.190   6.239 -0.8149 -1.3976  0.0798
15433SOL     OW47492   0.698   6.241   4.403  0.2335  0.4645  0.5267
15433SOL    HW147493   0.711   6.148   4.382  2.5584  0.4884  1.5387
15433SOL    HW247494   0.617   6.243   4.454 -1.9675 -0.4281 -2.5918
15434SOL     OW47495   2.194   0.464   2.308  0.0838  0.3720  0.3456
15434SOL    HW147496   2.211   0.373   2.330 -0.8201 -0.3053 -1.5652
15434SOL    HW247497   2.214   0.471   2.215  0.0397  2.1155  0.4197
15435SOL     OW47498   1.649   6.556   8.573  0.3521  0.8628  0.1043
15435SOL    HW147499   1.621   6.642   8.540 -0.7316 -0.0776 -1.5495
15435SOL    HW247500   1.627   6.495   8.503  1.0116 -0.8041  1.2876
15436SOL     OW47501   8.530   7.948   8.019  0.3655  0.2410  0.7403
15436SOL    HW147502   8.525   7.996   8.101 -1.2564 -1.4274  1.6927
15436SOL    HW247503   8.514   8.013   7.951  0.7636  1.4673  1.7922
15437SOL     OW47504   3.764   2.078   4.646  0.5524  0.4013 -0.3029
15437SOL    HW147505   3.734   1.988   4.659  1.3437  0.0644 -0.7393
15437SOL    HW247506   3.789   2.108   4.733  0.2396  0.2143 -0.1472
15438SOL     OW47507   0.208   1.670   5.658  0.1292  0.1110 -0.2130
15438SOL    HW147508   0.230   1.611   5.586  0.5174  0.8320 -0.6982
15438SOL    HW247509   0.290   1.678   5.707 -0.2197 -0.6482  0.5265
15439SOL     OW47510   0.044   8.396   2.788  0.7820  0.0093 -0.2603
15439SOL    HW147511   0.069   8.488   2.776  1.0101 -0.1908 -1.4241
15439SOL    HW247512   0.016   8.391   2.879 -0.5439  1.5415 -0.5319
15440SOL     OW47513   1.328   6.606   0.403 -0.1319 -0.4826  0.6271
15440SOL    HW147514   1.353   6.699   0.407 -1.5055  0.0223 -1.0407
15440SOL    HW247515   1.365   6.568   0.483  2.7380  0.9078  0.1162
15441SOL     OW47516   8.536   8.278   1.295 -0.1520  0.6582 -0.4423
15441SOL    HW147517   8.506   8.270   1.386  0.0999  0.6284 -0.3630
15441SOL    HW247518   8.460   8.251   1.243  0.1304 -0.6080 -0.2190
15442SOL     OW47519   1.397   3.919   6.808 -0.4572  0.1014  0.6612
15442SOL    HW147520   1.331   3.986   6.789 -0.8534  0.0987  1.9392
15442SOL    HW247521   1.480   3.959   6.783 -0.8382  0.4498 -0.0996
15443SOL     OW47522   7.580   2.209   2.030  0.1964 -0.1090 -0.1967
15443SOL    HW147523   7.542   2.260   2.102  1.3064 -0.6482  0.7880
15443SOL    HW247524   7.564   2.263   1.952 -0.8167  0.5895  0.4644
15444SOL     OW47525   3.134   0.224   5.188 -0.0911  0.0088 -0.3934
15444SOL    HW147526   3.078   0.239   5.264  1.0444 -1.8478  0.8935
15444SOL    HW247527   3.124   0.130   5.169  2.2442 -0.2976 -0.3522
15445SOL     OW47528   4.138   2.188   0.017 -0.0971  0.1140  0.1432
15445SOL    HW147529   4.058   2.137   0.024  1.2404 -1.9821  1.0185
15445SOL    HW247530   4.195   2.154   0.086  2.2917  0.1382 -1.6831
15446SOL     OW47531   5.418   6.268   3.829  0.0911  0.3538 -0.2187
15446SOL    HW147532   5.440   6.192   3.774  0.4211  0.5185 -0.3179
15446SOL    HW247533   5.444   6.241   3.918  2.7412  1.3042 -0.6077
15447SOL     OW47534   6.839   4.944   5.258  0.0217 -0.4505 -0.7152
15447SOL    HW147535   6.924   4.906   5.282 -0.0233 -0.3428 -0.3906
15447SOL    HW247536   6.823   5.010   5.324  1.0549  1.5622 -2.3534
15448SOL     OW47537   7.100   4.258   2.184  0.3047  0.0642  0.0255
15448SOL    HW147538   7.120   4.343   2.225  0.4292  0.5103 -0.9257
15448SOL    HW247539   7.118   4.272   2.091  1.1202 -1.2554 -0.0327
15449SOL     OW47540   6.487   6.805   6.157 -0.0705  0.1790 -0.8317
15449SOL    HW147541   6.436   6.861   6.099 -0.6096  0.4098 -0.1559
15449SOL    HW247542   6.423   6.773   6.221  0.8806  1.8107  1.0671
15450SOL     OW47543   0.241   8.404   4.550 -0.0321 -0.1351  0.2457
15450SOL    HW147544   0.167   8.433   4.603  0.4043 -0.1333  0.8662
15450SOL    HW247545   0.291   8.484   4.532  1.3838 -0.4815  2.2856
15451SOL     OW47546   1.754   2.231   7.746 -0.4012  0.2146  0.1954
15451SOL    HW147547   1.670   2.277   7.749 -0.0458  0.9526 -0.6898
15451SOL    HW247548   1.730   2.138   7.745 -1.1696  0.3920  0.8355
15452SOL     OW47549   4.473   7.105   2.094  0.2749 -1.0315  0.0533
15452SOL    HW147550   4.544   7.050   2.129  1.6659  0.6764  0.0179
15452SOL    HW247551   4.485   7.189   2.137 -0.2371  0.0306 -1.7885
15453SOL     OW47552   6.641   3.258   0.097  0.6645  0.1124  0.0050
15453SOL    HW147553   6.624   3.344   0.059  1.2028  0.9092  1.4667
15453SOL    HW247554   6.607   3.195   0.033  0.9753  1.3780 -1.4482
15454SOL     OW47555   3.201   0.315   8.509  0.7477 -0.5489 -0.3151
15454SOL    HW147556   3.120   0.265   8.499 -1.0828  2.2748 -0.8556
15454SOL    HW247557   3.219   0.313   8.603 -0.8334 -0.0317  0.0326
15455SOL     OW47558   7.871   3.204   8.372  0.0016 -0.4655  0.3098
15455SOL    HW147559   7.899   3.120   8.408  1.1860 -0.7496 -1.1536
15455SOL    HW247560   7.886   3.196   8.278 -1.3908  0.8262 -0.0560
15456SOL     OW47561   3.713   4.191   5.199 -0.1189 -0.1708 -0.1612
15456SOL    HW147562   3.630   4.225   5.234  0.6996  0.1494  1.5951
15456SOL    HW247563   3.773   4.194   5.273  1.5265 -0.2569 -1.4372
15457SOL     OW47564   5.817   1.569   4.708  0.2032 -0.0183  0.1981
15457SOL    HW147565   5.902   1.533   4.683  1.1161  0.6794  2.1390
15457SOL    HW247566   5.831   1.608   4.794 -1.8426  1.0306  0.1234
15458SOL     OW47567   3.116   1.368   2.539  0.2602  0.0856 -0.7224
15458SOL    HW147568   3.041   1.310   2.547 -0.2688  0.8636  0.0995
15458SOL    HW247569   3.081   1.449   2.504  0.6058  0.6405  0.1796
15459SOL     OW47570   2.414   1.590   3.876  0.3084  0.5225  0.4401
15459SOL    HW147571   2.408   1.645   3.798  0.2962  0.9559  0.7455
15459SOL    HW247572   2.400   1.649   3.949 -1.9452 -0.2467  0.7008
15460SOL     OW47573   5.539   2.110   4.996 -0.2794  0.2628  0.4279
15460SOL    HW147574   5.617   2.067   5.030 -1.2732 -1.4189  0.6535
15460SOL    HW247575   5.570   2.159   4.920  0.7675 -1.5027 -0.3225
15461SOL     OW47576   1.699   0.241   8.205 -0.2719 -0.5083  0.4949
15461SOL    HW147577   1.756   0.235   8.281  0.9491  1.8171 -0.1405
15461SOL    HW247578   1.757   0.268   8.133 -1.5261 -1.8262 -1.1027
15462SOL     OW47579   4.679   5.920   1.047  0.3081  0.3894  0.3522
15462SOL    HW147580   4.636   5.970   0.978 -0.7857  1.5170  1.7852
15462SOL    HW247581   4.607   5.881   1.096  0.7484  2.7906  3.1664
15463SOL     OW47582   2.836   0.041   2.067  0.0102 -0.3151  0.6259
15463SOL    HW147583   2.761   0.051   2.126  0.2475 -2.4755  1.3896
15463SOL    HW247584   2.800  -0.006   1.991  0.0692  0.9354 -0.1904
15464SOL     OW47585   0.161   6.880   2.379  0.5663  0.3657 -0.5703
15464SOL    HW147586   0.163   6.784   2.376  0.7776  0.3533 -0.1822
15464SOL    HW247587   0.247   6.907   2.349  0.7687  0.4068  0.0354
15465SOL     OW47588   1.195   7.731   5.948  0.4224 -0.1774 -0.4073
15465SOL    HW147589   1.274   7.680   5.934  0.2223 -0.4596 -0.5205
15465SOL    HW247590   1.176   7.771   5.863  1.0765  0.8175 -0.1080
15466SOL     OW47591   4.951   1.125   6.478  0.8869  0.3470  0.1444
15466SOL    HW147592   5.029   1.094   6.523  0.5275  1.6950  1.8002
15466SOL    HW247593   4.885   1.133   6.547 -0.1144  1.1475 -0.8719
15467SOL     OW47594   0.844   4.604   6.359  0.0413 -0.2378 -0.5331
15467SOL    HW147595   0.763   4.602   6.410  0.2011  0.4422 -0.2384
15467SOL    HW247596   0.880   4.691   6.375  0.1847 -0.0601 -1.6753
15468SOL     OW47597   0.162   7.574   2.227  0.2239  0.5439 -0.1529
15468SOL    HW147598   0.199   7.583   2.315  1.0801 -0.8663 -0.3274
15468SOL    HW247599   0.075   7.538   2.241 -0.1115  1.4633  0.1610
15469SOL     OW47600   8.142   1.033   4.673  0.0885 -0.2944  0.3780
15469SOL    HW147601   8.153   1.127   4.658  1.6792 -0.5144  0.0380
15469SOL    HW247602   8.145   0.994   4.585  0.5155 -0.7579  0.5946
15470SOL     OW47603   5.231   2.119   7.584 -0.9032  0.1293 -0.2868
15470SOL    HW147604   5.265   2.036   7.551 -1.8389 -0.7364  0.8486
15470SOL    HW247605   5.241   2.112   7.679 -0.3418  1.6281 -0.2078
15471SOL     OW47606   2.445   3.870   5.013 -0.3393 -0.7317 -0.3604
15471SOL    HW147607   2.428   3.847   5.104  0.2362 -0.1506 -0.1017
15471SOL    HW247608   2.501   3.947   5.018 -2.0905  0.6757 -1.1919
15472SOL     OW47609   6.994   6.071   5.208 -0.3970 -0.4028 -0.2423
15472SOL    HW147610   7.068   6.117   5.248 -0.7013  0.2928 -0.4661
15472SOL    HW247611   7.025   6.048   5.121 -0.4774 -0.0147 -0.3758
15473SOL     OW47612   8.504   1.000   7.081 -0.2194  0.1228 -0.2315
15473SOL    HW147613   8.494   1.022   7.173  1.9035  0.7570 -0.1030
15473SOL    HW247614   8.532   1.082   7.039  1.3180 -0.7089 -0.9447
15474SOL     OW47615   1.930   2.267   1.131 -0.1808 -0.2258 -0.4136
15474SOL    HW147616   1.984   2.299   1.059 -0.2659  0.7905 -0.0411
15474SOL    HW247617   1.976   2.190   1.164  1.2251  0.8240  0.1249
15475SOL     OW47618   2.742   3.046   1.419 -0.4105 -0.6885  0.5000
15475SOL    HW147619   2.733   2.986   1.345  0.1109  0.4897 -0.5547
15475SOL    HW247620   2.654   3.080   1.434 -0.4613 -0.6858  0.1993
15476SOL     OW47621   4.743   4.957   7.394  0.4231  0.1316 -0.5042
15476SOL    HW147622   4.701   5.042   7.376  0.0306  0.1162  0.3090
15476SOL    HW247623   4.670   4.895   7.400  0.6554 -0.1255 -0.3400
15477SOL     OW47624   0.053   1.392   2.197  0.1391 -0.0075 -0.1279
15477SOL    HW147625   0.004   1.311   2.183  0.1810 -0.2617  1.0747
15477SOL    HW247626   0.143   1.370   2.171 -0.1839  0.1834 -1.4511
15478SOL     OW47627   7.083   0.121   5.124  0.1068 -0.0642  0.3821
15478SOL    HW147628   7.141   0.158   5.191  1.6780  2.0339 -1.9702
15478SOL    HW247629   7.125   0.040   5.097  1.3210  0.8155 -0.4294
15479SOL     OW47630   4.114   4.117   4.049 -0.1693 -0.1789 -0.3321
15479SOL    HW147631   4.138   4.035   4.006  0.0882 -1.0445  1.3774
15479SOL    HW247632   4.065   4.091   4.127 -0.6401  1.3186 -0.0799
15480SOL     OW47633   1.983   4.022   1.227 -0.4521  0.2174  0.3657
15480SOL    HW147634   1.894   3.989   1.212 -0.5341 -0.0861  1.4548
15480SOL    HW247635   1.995   4.017   1.322  1.0559 -0.5828  0.1625
15481SOL     OW47636   5.203   4.515   1.490  0.9667  0.6062  0.0658
15481SOL    HW147637   5.220   4.453   1.419 -0.4928 -0.9243  1.0184
15481SOL    HW247638   5.122   4.485   1.531  1.8817  1.2921  2.5606
15482SOL     OW47639   3.939   2.996   4.855  0.1213 -0.6573 -0.8113
15482SOL    HW147640   3.895   3.050   4.920  1.8021 -0.1018 -0.0886
15482SOL    HW247641   3.927   2.906   4.886  0.8150 -0.4042  0.2211
15483SOL     OW47642   4.325   2.239   1.611  0.3801  0.9490 -0.5636
15483SOL    HW147643   4.265   2.262   1.683 -0.6214  2.0032 -1.6711
15483SOL    HW247644   4.300   2.150   1.586  1.5355  0.0974  1.1188
15484SOL     OW47645   8.455   2.664   2.157  0.6574  0.1807 -0.7034
15484SOL    HW147646   8.397   2.714   2.098  1.0534  0.4600 -0.8605
15484SOL    HW247647   8.402   2.590   2.184  0.3447  0.2371 -1.1382
15485SOL     OW47648   3.174   1.076   5.821 -0.0123  1.3140 -0.0500
15485SOL    HW147649   3.156   1.153   5.875  0.8221  2.5339 -1.4051
15485SOL    HW247650   3.251   1.102   5.769  1.9149 -1.3644  1.2298
15486SOL     OW47651   0.231   1.625   6.657  0.5154  0.7028 -0.2809
15486SOL    HW147652   0.186   1.703   6.625  0.1188 -0.0417 -1.6614
15486SOL    HW247653   0.257   1.579   6.577  0.2986 -0.8142  0.4912
15487SOL     OW47654   5.385   2.513   0.165 -0.7077  0.4776 -0.1318
15487SOL    HW147655   5.469   2.500   0.210 -0.9885  2.0807  0.9574
15487SOL    HW247656   5.337   2.431   0.180 -0.1213  0.3223  1.0442
15488SOL     OW47657   2.956   7.972   7.708 -0.5374  0.2043  0.0186
15488SOL    HW147658   2.922   8.028   7.778  1.4741 -0.5819  1.7314
15488SOL    HW247659   2.890   7.904   7.696 -2.1264  1.7979 -0.7645
15489SOL     OW47660   8.016   1.268   2.383 -0.2623  0.0859  0.2262
15489SOL    HW147661   7.955   1.327   2.427  0.9156  1.4301  0.1616
15489SOL    HW247662   8.021   1.191   2.440 -2.3526 -0.2955 -0.0261
15490SOL     OW47663   5.775   6.630   4.435 -0.1413 -0.2571 -0.4806
15490SOL    HW147664   5.840   6.560   4.442  0.3705 -0.0011 -2.1899
15490SOL    HW247665   5.749   6.629   4.343 -0.3854  1.5633 -0.4594
15491SOL     OW47666   7.674   4.004   3.471  0.0062 -0.2776 -0.0266
15491SOL    HW147667   7.599   3.953   3.504  0.5638  0.1304  2.0088
15491SOL    HW247668   7.639   4.052   3.395 -1.7024 -0.4031  0.6382
15492SOL     OW47669   0.063   4.975   3.719  0.0252 -0.1675  0.0346
15492SOL    HW147670   0.060   4.892   3.767  1.6176  0.6054  1.5541
15492SOL    HW247671   0.153   5.005   3.728 -1.1188  3.2082  2.1343
15493SOL     OW47672   5.751   5.531   7.643  0.1776 -0.4314  0.5735
15493SOL    HW147673   5.660   5.549   7.620 -0.3654  0.0427  2.8705
15493SOL    HW247674   5.802   5.578   7.577 -1.1849 -1.4783 -1.3267
15494SOL     OW47675   7.767   7.260   0.979  0.0585  0.2937 -0.5267
15494SOL    HW147676   7.840   7.291   1.031  0.1814 -0.8933  0.0529
15494SOL    HW247677   7.780   7.300   0.893  1.6226 -0.2021 -0.5522
15495SOL     OW47678   5.158   0.115   4.657  0.6797 -0.0368 -0.5630
15495SOL    HW147679   5.172   0.188   4.596  1.0220 -0.2661 -0.7555
15495SOL    HW247680   5.063   0.101   4.656  0.6696  0.0588 -0.9260
15496SOL     OW47681   8.312   1.147   3.096  0.4313 -0.0089  0.1731
15496SOL    HW147682   8.378   1.099   3.046 -0.7590  1.1039 -2.7512
15496SOL    HW247683   8.327   1.239   3.073  0.0836  0.6432  2.3343
15497SOL     OW47684   0.938   0.360   7.466 -0.5253  0.6049 -0.4361
15497SOL    HW147685   0.914   0.269   7.480  0.3326  0.4076 -0.2017
15497SOL    HW247686   0.916   0.404   7.548 -0.3382  0.4794 -0.3181
15498SOL     OW47687   2.444   1.852   0.281 -0.2016 -0.3344 -0.2089
15498SOL    HW147688   2.523   1.906   0.289 -0.1744 -0.2875 -0.7835
15498SOL    HW247689   2.442   1.824   0.190  1.6707 -4.2498  0.7496
15499SOL     OW47690   6.351   6.052   7.862 -0.1328 -0.3725 -0.6882
15499SOL    HW147691   6.295   5.975   7.868 -1.4345  0.6505  1.3428
15499SOL    HW247692   6.439   6.019   7.880 -0.8660 -1.1979  1.7610
15500SOL     OW47693   7.082   1.827   8.599 -0.2837  0.1254  0.1403
15500SOL    HW147694   7.010   1.852   8.658 -0.6202 -2.0239  0.7224
15500SOL    HW247695   7.100   1.736   8.621  0.8421 -0.1735 -1.8497
15501SOL     OW47696   4.795   5.208   6.648 -0.0745 -0.7108  0.0471
15501SOL    HW147697   4.851   5.131   6.661  0.7390 -0.0371  0.5659
15501SOL    HW247698   4.823   5.243   6.564  1.4188  0.5224  0.9935
15502SOL     OW47699   2.762   0.105   4.608  0.3719 -0.3420 -0.5976
15502SOL    HW147700   2.849   0.145   4.605  0.0004  0.7624  1.5793
15502SOL    HW247701   2.775   0.023   4.657  0.0762  0.2590  0.5226
15503SOL     OW47702   2.410   0.375   5.347 -0.0113  1.2389 -0.1027
15503SOL    HW147703   2.419   0.397   5.254  2.3779  0.1195 -0.2105
15503SOL    HW247704   2.351   0.299   5.347  1.5557 -0.0501 -0.9779
15504SOL     OW47705   8.297   8.073   5.570 -0.2488 -0.3194 -0.4800
15504SOL    HW147706   8.364   8.016   5.609 -0.9480 -1.8883 -1.4397
15504SOL    HW247707   8.220   8.016   5.561 -1.3007  1.0719 -0.6186
15505SOL     OW47708   6.903   7.473   2.950  0.0150 -0.0079  0.0571
15505SOL    HW147709   6.889   7.567   2.964 -0.1464 -0.1620  1.0754
15505SOL    HW247710   6.951   7.445   3.028 -2.4060 -1.2980  1.1995
15506SOL     OW47711   5.042   2.394   7.999 -0.2571 -0.6562  0.1296
15506SOL    HW147712   5.101   2.470   7.996 -0.2471 -0.5830 -3.9839
15506SOL    HW247713   5.088   2.331   8.055  1.2498  1.2187  1.1353
15507SOL     OW47714   5.839   6.146   5.681  0.5176 -0.6154 -0.9779
15507SOL    HW147715   5.876   6.230   5.653  1.5212 -0.9233 -0.6293
15507SOL    HW247716   5.800   6.109   5.602 -1.5544  0.9615 -0.7782
15508SOL     OW47717   0.192   5.440   6.393  0.5368  0.5666 -0.5202
15508SOL    HW147718   0.241   5.360   6.412 -0.4084  0.5569  2.3341
15508SOL    HW247719   0.138   5.417   6.317  1.0175 -1.1706 -0.3928
15509SOL     OW47720   7.482   5.395   6.041  0.5325 -0.1432  0.3641
15509SOL    HW147721   7.485   5.475   6.094  0.8587 -0.0043  0.1413
15509SOL    HW247722   7.472   5.428   5.951 -0.7972 -0.3937  0.4081
15510SOL     OW47723   3.016   7.432   0.432  0.6894  0.6024 -0.3406
15510SOL    HW147724   3.028   7.343   0.463 -1.4559  0.3328 -0.1418
15510SOL    HW247725   3.007   7.425   0.337  1.1687  0.7138 -0.4014
15511SOL     OW47726   7.645   1.878   4.461 -0.2960  0.2075 -0.3825
15511SOL    HW147727   7.559   1.880   4.503  0.6189 -1.8903  1.7517
15511SOL    HW247728   7.679   1.967   4.471 -1.2813  0.4714  0.7766
15512SOL     OW47729   4.244   3.269   3.783  0.1410 -0.7439 -0.1527
15512SOL    HW147730   4.228   3.337   3.717 -2.3714 -1.0778  0.0081
15512SOL    HW247731   4.161   3.222   3.789  0.8834 -1.9092  1.9483
15513SOL     OW47732   6.478   0.604   3.064  0.7565 -0.3944 -0.1771
15513SOL    HW147733   6.467   0.697   3.085 -1.3972 -0.7158  0.2809
15513SOL    HW247734   6.573   0.595   3.050  1.3190  1.4511  1.7799
15514SOL     OW47735   5.452   1.716   6.665 -0.1734  0.4571  0.0131
15514SOL    HW147736   5.435   1.632   6.708 -0.2178  0.2960 -0.3139
15514SOL    HW247737   5.480   1.774   6.736  1.6179 -0.3073 -0.0132
15515SOL     OW47738   4.679   3.562   2.802  1.2047  0.3455 -0.0305
15515SOL    HW147739   4.664   3.653   2.827  0.0191 -0.2987  1.7975
15515SOL    HW247740   4.593   3.530   2.775  0.5880 -1.3495  3.4455
15516SOL     OW47741   0.940   5.916   4.720 -0.0605  0.2475 -0.0892
15516SOL    HW147742   0.997   5.840   4.732  0.0163  0.3692  0.3211
15516SOL    HW247743   0.853   5.886   4.746 -0.3597 -0.1734 -1.4549
15517SOL     OW47744   4.560   3.949   5.609 -0.1795 -0.1648 -0.1815
15517SOL    HW147745   4.590   3.950   5.700  0.6975  0.7744 -0.4704
15517SOL    HW247746   4.470   3.983   5.614 -0.7910 -1.7871  0.5255
15518SOL     OW47747   1.467   2.868   8.577  0.2680 -0.0084 -0.5357
15518SOL    HW147748   1.431   2.956   8.568  0.4981  0.2720  0.9827
15518SOL    HW247749   1.433   2.820   8.502 -3.0174  0.3085  0.5888
15519SOL     OW47750   3.798   8.357   5.016 -0.6117 -0.0831 -0.0515
15519SOL    HW147751   3.787   8.394   4.928 -1.3149 -0.1873 -0.0143
15519SOL    HW247752   3.758   8.270   5.010 -0.5975 -0.1186  0.3466
15520SOL     OW47753   5.925   6.555   3.433 -0.2687 -0.5405  0.6214
15520SOL    HW147754   5.931   6.651   3.425 -1.8114 -0.5498 -1.5787
15520SOL    HW247755   5.990   6.522   3.371 -1.8815 -0.8362 -0.9893
15521SOL     OW47756   5.574   4.068   3.932  0.2548 -0.4391  0.3184
15521SOL    HW147757   5.641   4.008   3.964  1.4657  0.8285  0.2471
15521SOL    HW247758   5.609   4.155   3.949 -0.3532  0.2732 -1.8183
15522SOL     OW47759   2.631   6.208   1.196  0.0254  0.4714 -0.0716
15522SOL    HW147760   2.567   6.202   1.125  0.2439  1.1486 -0.3342
15522SOL    HW247761   2.715   6.198   1.153  0.0852 -0.8156  0.3287
15523SOL     OW47762   7.462   6.610   3.518  0.5365  0.4203 -0.1390
15523SOL    HW147763   7.468   6.545   3.588  0.8639 -0.9350 -1.3830
15523SOL    HW247764   7.462   6.559   3.437 -0.0983  1.9318 -1.1411
15524SOL     OW47765   6.474   1.691   6.764 -0.4537  0.5207 -0.5072
15524SOL    HW147766   6.477   1.735   6.679  0.0385 -0.2026 -0.8806
15524SOL    HW247767   6.390   1.719   6.802 -0.1469  1.7681 -0.7077
15525SOL     OW47768   4.967   3.286   2.327  0.0442 -0.6310 -0.5682
15525SOL    HW147769   5.005   3.206   2.291 -0.2824 -0.9781 -0.1501
15525SOL    HW247770   4.874   3.267   2.336  0.2096 -0.7733  1.0252
15526SOL     OW47771   0.064   6.518   7.594  0.0941  0.1667 -0.4616
15526SOL    HW147772   0.116   6.510   7.514  0.1130  2.4019 -0.7430
15526SOL    HW247773  -0.003   6.450   7.587  0.6883 -0.3055 -1.9035
15527SOL     OW47774   6.674   7.090   3.388  0.3315 -0.6945 -0.2134
15527SOL    HW147775   6.636   7.002   3.394  0.6114 -0.9705 -2.0008
15527SOL    HW247776   6.712   7.094   3.301  1.9578  0.5668  0.4942
15528SOL     OW47777   4.843   1.073   4.883  0.2619  0.1062 -0.7904
15528SOL    HW147778   4.786   1.148   4.870 -1.0657 -0.8902 -0.9733
15528SOL    HW247779   4.808   1.006   4.825  1.7151 -0.5059 -1.0053
15529SOL     OW47780   8.222   8.180   0.573  0.0885  0.8241  0.0353
15529SOL    HW147781   8.255   8.104   0.620  0.3861  1.6620  1.2280
15529SOL    HW247782   8.297   8.209   0.520 -0.5089 -0.6459 -1.7271
15530SOL     OW47783   6.479   7.314   0.694  0.0312  0.4622  0.4333
15530SOL    HW147784   6.478   7.297   0.600 -0.4963  0.0904  0.5043
15530SOL    HW247785   6.572   7.312   0.717  0.1616  0.4769 -0.0614
15531SOL     OW47786   0.810   7.775   0.366  0.6397 -0.0445 -0.0124
15531SOL    HW147787   0.758   7.823   0.302 -0.7045 -0.1437  0.9773
15531SOL    HW247788   0.860   7.711   0.314  1.4970  1.5291 -1.2056
15532SOL     OW47789   1.150   4.722   3.085  0.4519 -0.2507 -0.1185
15532SOL    HW147790   1.187   4.806   3.112  0.7945 -0.4289 -0.0319
15532SOL    HW247791   1.062   4.721   3.123  1.2375 -0.8969  1.7919
15533SOL     OW47792   7.865   8.319   6.354  0.8772 -0.2285  0.2612
15533SOL    HW147793   7.955   8.303   6.327  0.5214 -1.3129 -0.3058
15533SOL    HW247794   7.860   8.415   6.363  1.5006  0.0257 -1.7374
15534SOL     OW47795   7.963   6.199   6.256 -0.1672  1.1028 -0.4829
15534SOL    HW147796   8.002   6.244   6.181  1.6537  0.1914 -0.1511
15534SOL    HW247797   7.945   6.111   6.225 -0.9471  1.1954 -0.3028
15535SOL     OW47798   6.173   4.389   0.056  0.6764  0.3098 -0.0973
15535SOL    HW147799   6.130   4.342   0.128  0.9978  1.6519  1.0197
15535SOL    HW247800   6.241   4.329   0.026  1.5841  0.2954  1.8021
15536SOL     OW47801   0.917   7.274   5.571  0.6173  0.2243 -0.3542
15536SOL    HW147802   0.841   7.325   5.542  0.7874  0.9455  0.4194
15536SOL    HW247803   0.970   7.263   5.492 -0.2582 -0.2379 -0.8924
15537SOL     OW47804   7.677   4.208   7.338 -0.3168 -0.0651  0.4150
15537SOL    HW147805   7.612   4.151   7.296  1.0597 -1.8693  0.6271
15537SOL    HW247806   7.667   4.190   7.431  0.9874 -0.9319  0.3980
15538SOL     OW47807   5.223   5.914   4.410 -0.1768  0.2440  0.0617
15538SOL    HW147808   5.285   5.841   4.420 -0.8359 -0.1051  2.0316
15538SOL    HW247809   5.254   5.961   4.333  0.4846 -1.9087 -1.0695
15539SOL     OW47810   8.313   3.047   2.667 -0.0153 -0.4641 -0.1265
15539SOL    HW147811   8.324   2.976   2.730  0.3574  0.8479  1.3594
15539SOL    HW247812   8.367   3.021   2.592 -0.4109 -2.0368  0.0960
15540SOL     OW47813   2.809   5.818   1.324 -0.0325 -0.8980 -0.1390
15540SOL    HW147814   2.729   5.772   1.349 -0.5205 -0.1917 -0.3777
15540SOL    HW247815   2.855   5.833   1.406 -0.3891 -0.8750  0.0590
15541SOL     OW47816   3.709   4.853   4.002 -0.3344  0.0353 -0.0158
15541SOL    HW147817   3.715   4.860   4.098 -2.3110  0.2296  0.1373
15541SOL    HW247818   3.691   4.761   3.986  1.5661 -0.3157 -0.3511
15542SOL     OW47819   3.484   0.966   5.040  0.4935  0.0287 -0.3728
15542SOL    HW147820   3.531   1.042   5.007  0.4164 -0.4530 -1.6623
15542SOL    HW247821   3.482   0.905   4.966  0.3844 -1.1489  0.5682
15543SOL     OW47822   5.060   8.561   3.703 -0.1453 -0.6407 -0.0701
15543SOL    HW147823   4.977   8.514   3.712 -0.4080 -0.1891 -0.1262
15543SOL    HW247824   5.035   8.652   3.690  0.3887 -0.2713  1.3076
15544SOL     OW47825   0.744   0.588   6.958 -0.1455 -0.0345 -0.2868
15544SOL    HW147826   0.783   0.674   6.972 -0.4512  0.3149 -1.4599
15544SOL    HW247827   0.806   0.526   6.998  0.2785  0.6938  0.1981
15545SOL     OW47828   7.115   1.208   6.010  0.1571  0.5029 -0.5807
15545SOL    HW147829   7.153   1.284   6.055  2.6059 -0.6262 -0.5832
15545SOL    HW247830   7.153   1.210   5.923 -0.9421  0.0626 -1.0934
15546SOL     OW47831   7.523   8.011   2.390 -0.1803 -0.3351  0.8710
15546SOL    HW147832   7.599   8.007   2.332 -0.1227 -0.7422  0.9687
15546SOL    HW247833   7.494   7.920   2.398 -0.7433 -0.1717  0.7512
15547SOL     OW47834   1.762   6.663   0.731 -0.1470  0.2617 -0.8018
15547SOL    HW147835   1.758   6.658   0.636 -0.2488 -1.8996 -0.7362
15547SOL    HW247836   1.715   6.585   0.762 -1.2721  1.5982  1.0611
15548SOL     OW47837   6.347   4.156   2.261  0.2753 -0.8986 -0.0010
15548SOL    HW147838   6.295   4.107   2.197 -0.8502  1.4078 -0.9781
15548SOL    HW247839   6.404   4.211   2.207 -1.0175  1.4432  0.8498
15549SOL     OW47840   4.440   6.661   7.846 -0.1278 -0.7567 -0.0196
15549SOL    HW147841   4.514   6.720   7.831 -1.1924  0.5645 -0.2935
15549SOL    HW247842   4.363   6.718   7.843 -1.2370 -2.2259 -0.6828
15550SOL     OW47843   6.575   4.450   5.203 -0.3126  0.0015 -0.1896
15550SOL    HW147844   6.563   4.545   5.201 -1.6465 -0.1378 -3.3190
15550SOL    HW247845   6.670   4.438   5.195 -0.1557  1.0489 -0.0464
15551SOL     OW47846   2.373   0.772   4.433  0.6369 -0.4215  0.1140
15551SOL    HW147847   2.367   0.866   4.415  0.2066 -0.2618  1.0324
15551SOL    HW247848   2.298   0.754   4.490  0.7308 -1.3188 -0.0348
15552SOL     OW47849   3.761   8.182   5.875 -0.0384 -0.0002  0.0233
15552SOL    HW147850   3.688   8.236   5.846  0.0121  0.1395  0.1573
15552SOL    HW247851   3.806   8.235   5.941  0.8713  0.4017 -0.8936
15553SOL     OW47852   3.742   5.368   2.038  0.3437 -0.0246  0.5641
15553SOL    HW147853   3.785   5.284   2.052 -0.7125 -0.6567  0.1228
15553SOL    HW247854   3.738   5.408   2.125  2.9998  0.6861  0.4435
15554SOL     OW47855   4.026   7.872   4.133 -0.2336  0.4533  0.3450
15554SOL    HW147856   4.048   7.921   4.212 -0.6221  0.1993  0.6140
15554SOL    HW247857   3.968   7.802   4.163 -1.3744  1.0715 -0.3288
15555SOL     OW47858   1.233   5.677   4.043  0.2883  0.3122  0.6013
15555SOL    HW147859   1.236   5.772   4.037  0.3773  0.2896  0.2807
15555SOL    HW247860   1.196   5.659   4.130  0.0541  0.6366  0.5678
15556SOL     OW47861   0.079   6.072   0.406 -0.1731  0.1005 -0.0660
15556SOL    HW147862   0.169   6.070   0.372  0.1306 -0.5843  0.7445
15556SOL    HW247863   0.077   6.149   0.463 -0.0926  0.1025 -0.0657
15557SOL     OW47864   2.664   6.985   5.313 -0.6505  0.5463  0.0464
15557SOL    HW147865   2.631   6.964   5.225 -0.8254 -0.8186  0.4187
15557SOL    HW247866   2.702   7.072   5.303  1.5150 -0.4983 -1.9933
15558SOL     OW47867   6.432   6.262   0.133  0.1494 -0.0639 -0.0174
15558SOL    HW147868   6.373   6.286   0.205  0.8381  0.2102  0.4627
15558SOL    HW247869   6.510   6.315   0.148  0.3314 -0.0686 -0.9247
15559SOL     OW47870   7.653   6.279   5.384  0.1501  0.4550  0.1463
15559SOL    HW147871   7.732   6.262   5.435 -1.3392 -0.9715  2.1512
15559SOL    HW247872   7.608   6.349   5.432 -1.5828 -1.3341  1.3122
15560SOL     OW47873   6.917   7.475   2.410 -0.1020  0.6365 -0.1941
15560SOL    HW147874   6.894   7.490   2.502  1.1732 -0.1461  0.2913
15560SOL    HW247875   6.992   7.532   2.395  0.4346 -0.0984 -0.3814
15561SOL     OW47876   7.954   6.972   6.365  0.0605  0.2934  0.0779
15561SOL    HW147877   7.930   6.952   6.456 -1.3947 -0.8469 -0.5283
15561SOL    HW247878   7.888   7.036   6.337 -0.5211 -0.5946 -0.6582
15562SOL     OW47879   7.766   1.724   6.172 -0.1585 -0.3925  0.3623
15562SOL    HW147880   7.779   1.819   6.173  0.9176 -0.5303  1.2780
15562SOL    HW247881   7.701   1.708   6.240 -2.5171 -0.0928 -1.6395
15563SOL     OW47882   5.503   7.953   2.671  0.1370  0.2363  0.5068
15563SOL    HW147883   5.489   8.011   2.595 -1.2247 -0.5031  0.1610
15563SOL    HW247884   5.541   7.874   2.633  0.8023  0.4037  0.8090
15564SOL     OW47885   4.881   4.268   6.551 -0.4444  0.0447 -0.7929
15564SOL    HW147886   4.825   4.239   6.624  0.3850 -2.2989 -0.9823
15564SOL    HW247887   4.828   4.253   6.473  0.5555 -2.8962 -1.0346
15565SOL     OW47888   3.040   5.444   2.605  0.2111 -0.2473  0.2114
15565SOL    HW147889   2.977   5.479   2.669  1.7531  0.1370  1.5861
15565SOL    HW247890   3.071   5.522   2.558  0.1770 -0.3597 -0.0001
15566SOL     OW47891   5.499   7.390   5.373  0.0730 -0.2875  0.4213
15566SOL    HW147892   5.538   7.304   5.385  1.7423  0.0497 -1.8715
15566SOL    HW247893   5.434   7.377   5.304  0.1763  0.2424  0.2211
15567SOL     OW47894   8.542   6.589   1.101  0.0100 -0.2312  0.1168
15567SOL    HW147895   8.484   6.531   1.053  0.0102 -0.0228 -0.1410
15567SOL    HW247896   8.628   6.546   1.097 -0.0738 -0.4144  0.2816
15568SOL     OW47897   2.400   8.458   7.128  0.1394  0.1092 -0.8958
15568SOL    HW147898   2.490   8.427   7.121 -0.1415 -0.7488 -0.8322
15568SOL    HW247899   2.408   8.552   7.139  1.0078  0.1184 -1.4958
15569SOL     OW47900   4.821   7.883   0.898  0.1234  0.2313  0.4817
15569SOL    HW147901   4.880   7.956   0.883 -0.9572  0.9195 -0.5354
15569SOL    HW247902   4.757   7.888   0.828  0.6354 -2.3599 -0.2783
15570SOL     OW47903   4.791   1.138   7.633 -0.1109  0.0504 -0.3579
15570SOL    HW147904   4.773   1.045   7.618  0.8827 -0.4195  1.1233
15570SOL    HW247905   4.733   1.162   7.705 -0.5561  0.6817 -0.9057
15571SOL     OW47906   2.582   4.940   4.566 -0.4246 -0.2286  0.0485
15571SOL    HW147907   2.491   4.947   4.595 -1.1400  2.8667 -2.3785
15571SOL    HW247908   2.576   4.914   4.474  1.1315 -0.0879 -0.1189
15572SOL     OW47909   6.015   8.297   3.348 -0.5043  0.1170  0.3220
15572SOL    HW147910   5.944   8.241   3.380 -0.5928 -0.7812 -1.3156
15572SOL    HW247911   6.018   8.280   3.253  2.1931 -0.2195  0.3826
15573SOL     OW47912   3.989   1.791   3.780 -0.2021 -0.0362 -0.2155
15573SOL    HW147913   3.896   1.786   3.801 -0.1472  1.9980  0.7487
15573SOL    HW247914   4.032   1.740   3.849 -0.5115  0.4098  0.3144
15574SOL     OW47915   6.296   3.202   4.749  0.3458  0.2189 -0.1196
15574SOL    HW147916   6.267   3.184   4.659  0.8674  1.0498 -0.4662
15574SOL    HW247917   6.227   3.257   4.786 -0.4505 -1.0922  0.3980
15575SOL     OW47918   2.918   7.865   5.547 -0.3183 -0.0025 -0.7681
15575SOL    HW147919   2.844   7.923   5.528 -0.6124 -0.6225 -1.6106
15575SOL    HW247920   2.880   7.794   5.599  0.0196  0.4906  0.1735
15576SOL     OW47921   2.854   6.005   1.116  0.5169 -0.2100  0.0939
15576SOL    HW147922   2.846   5.951   1.194 -1.7667  1.5618  1.2131
15576SOL    HW247923   2.802   5.959   1.050 -0.7504  0.1986  0.7922
15577SOL     OW47924   3.893   3.600   5.297  0.5102 -0.7448  0.3678
15577SOL    HW147925   3.836   3.531   5.331 -0.6088  0.6520  1.4927
15577SOL    HW247926   3.917   3.571   5.209 -3.1353 -0.8139 -0.7909
15578SOL     OW47927   4.363   8.511   2.833 -0.0063  0.0728  0.7984
15578SOL    HW147928   4.413   8.434   2.861  0.9358  0.4476  0.1772
15578SOL    HW247929   4.415   8.549   2.763 -0.8132  0.8941  0.6314
15579SOL     OW47930   5.035   5.977   5.289  0.1745 -0.0193 -0.4331
15579SOL    HW147931   5.071   5.888   5.286 -1.2360 -0.7368  1.5324
15579SOL    HW247932   4.959   5.970   5.348 -2.3620  1.6751 -3.1884
15580SOL     OW47933   0.520   6.625   5.085 -0.1133  0.1051  0.0485
15580SOL    HW147934   0.451   6.572   5.045 -0.1851 -0.6669  1.1451
15580SOL    HW247935   0.544   6.577   5.164  0.5133  1.2233  0.5595
15581SOL     OW47936   2.991   8.255   6.321 -0.2157 -0.3563 -0.3749
15581SOL    HW147937   3.085   8.247   6.302 -0.3904  0.2630 -1.5881
15581SOL    HW247938   2.985   8.242   6.416  1.2343  0.7482 -0.0857
15582SOL     OW47939   0.356   6.646   7.092  0.0725  0.0640  0.1479
15582SOL    HW147940   0.314   6.636   7.177 -0.1098  0.6321  0.1259
15582SOL    HW247941   0.398   6.561   7.076 -0.1282 -0.1371  0.6724
15583SOL     OW47942   4.732   5.985   2.842  0.1154  0.1449 -0.2520
15583SOL    HW147943   4.702   5.992   2.933 -0.6596 -1.6898 -0.3177
15583SOL    HW247944   4.819   6.025   2.842  0.8402 -1.2694  1.6869
15584SOL     OW47945   0.466   4.692   0.549  0.4895 -0.5306  0.1915
15584SOL    HW147946   0.459   4.668   0.642 -0.8313  1.1757  0.5795
15584SOL    HW247947   0.452   4.610   0.502 -2.4731 -0.8767  1.4563
15585SOL     OW47948   1.980   4.315   7.296  0.1361  0.3419 -0.3465
15585SOL    HW147949   2.043   4.250   7.262 -0.7254 -0.8013  0.1845
15585SOL    HW247950   1.910   4.316   7.231 -0.2677  0.0942  0.0871
15586SOL     OW47951   0.155   2.178   1.291  0.2246  0.3479 -0.1835
15586SOL    HW147952   0.089   2.128   1.244 -0.4728 -0.2691  1.3877
15586SOL    HW247953   0.151   2.266   1.253 -1.2605  0.2329 -0.3514
15587SOL     OW47954   1.532   4.769   6.983  0.0611 -0.4122 -0.2604
15587SOL    HW147955   1.556   4.825   6.909 -1.6667  2.7301  1.3534
15587SOL    HW247956   1.604   4.780   7.046 -0.8170  1.0338  0.5341
15588SOL     OW47957   4.677   5.211   7.031  0.6189 -0.0055  0.1432
15588SOL    HW147958   4.633   5.285   6.989 -1.1383  0.1689  2.1455
15588SOL    HW247959   4.760   5.203   6.983  0.1360  2.1631 -1.2245
15589SOL     OW47960   1.713   7.048   0.585  0.5155 -0.5245 -0.3912
15589SOL    HW147961   1.800   7.068   0.618  0.9939 -3.4111  0.4298
15589SOL    HW247962   1.726   6.974   0.526 -1.1517  0.4176 -2.0385
15590SOL     OW47963   4.897   0.373   1.059  0.0299 -0.4460  0.0082
15590SOL    HW147964   4.849   0.401   1.136  0.2253 -0.7608  0.2439
15590SOL    HW247965   4.878   0.441   0.993  0.5660  0.2869  0.5928
15591SOL     OW47966   7.603   2.081   5.965  0.1568  0.1740 -1.0465
15591SOL    HW147967   7.510   2.086   5.946 -0.0934  1.5712  0.2719
15591SOL    HW247968   7.624   2.168   6.001  1.3644 -0.9436  1.1496
15592SOL     OW47969   6.756   0.316   2.417 -0.3830  0.6778 -0.2251
15592SOL    HW147970   6.747   0.306   2.512  1.1225 -0.5334 -0.1760
15592SOL    HW247971   6.787   0.406   2.405  0.1860  0.5842  0.4895
15593SOL     OW47972   0.294   2.988   8.548  0.3401 -0.2010  0.0987
15593SOL    HW147973   0.307   3.065   8.494 -3.2008  0.9723  0.6784
15593SOL    HW247974   0.303   3.020   8.638 -1.3925 -0.3649  0.3504
15594SOL     OW47975   2.742   8.471   1.855  0.9128  0.2982 -0.6955
15594SOL    HW147976   2.660   8.424   1.839  1.6095 -0.2442 -3.0176
15594SOL    HW247977   2.805   8.403   1.879  1.0902  0.4977 -0.5918
15595SOL     OW47978   0.589   6.447   3.692  0.1775 -0.5748 -0.0975
15595SOL    HW147979   0.528   6.384   3.652 -0.4391  0.5049 -0.8942
15595SOL    HW247980   0.624   6.497   3.618 -0.3086  0.8737  0.6194
15596SOL     OW47981   0.619   2.226   7.216  0.2197 -0.4790 -0.5709
15596SOL    HW147982   0.524   2.232   7.205  0.1646 -1.3473 -0.6427
15596SOL    HW247983   0.632   2.222   7.311  0.4373  2.9787 -0.3004
15597SOL     OW47984   5.703   2.149   0.179 -0.0749 -0.0999  0.7985
15597SOL    HW147985   5.653   2.217   0.224 -1.5855  0.7173 -1.8863
15597SOL    HW247986   5.659   2.067   0.202 -0.1676  0.1797  1.6259
15598SOL     OW47987   0.174   2.893   6.683  0.5269 -0.0936 -0.7636
15598SOL    HW147988   0.164   2.965   6.621  2.1715  0.5355 -0.3356
15598SOL    HW247989   0.267   2.891   6.704  0.0186 -0.0506  1.9387
15599SOL     OW47990   0.121   6.326   6.080  0.2703 -0.1915  0.2519
15599SOL    HW147991   0.032   6.313   6.049 -0.2849 -0.3169  1.8188
15599SOL    HW247992   0.147   6.241   6.116  0.8812 -0.0507  0.1577
15600SOL     OW47993   3.003   1.110   0.321  0.4493 -0.4805 -0.2182
15600SOL    HW147994   3.018   1.050   0.248  0.1875  0.1652 -0.8142
15600SOL    HW247995   3.077   1.171   0.317  1.2445 -1.3258  0.9833
15601SOL     OW47996   2.204   1.317   5.537 -0.1021  0.9482  0.5679
15601SOL    HW147997   2.174   1.374   5.467 -0.9077 -0.9723 -0.7508
15601SOL    HW247998   2.255   1.249   5.493 -0.2544 -0.0834  1.9030
15602SOL     OW47999   3.395   6.260   4.701 -0.1957  0.0326  1.0193
15602SOL    HW148000   3.395   6.353   4.679 -2.0257  0.0316  0.8789
15602SOL    HW248001   3.442   6.218   4.629  0.5646  0.8269  1.0398
15603SOL     OW48002   2.071   3.682   0.669 -0.2048  0.0703 -0.0502
15603SOL    HW148003   2.066   3.594   0.632  1.7700 -0.9792  1.9106
15603SOL    HW248004   1.994   3.689   0.726  0.5384 -1.1594  1.1730
15604SOL     OW48005   7.529   7.479   1.116  0.0114  0.3068  0.0419
15604SOL    HW148006   7.441   7.478   1.079  0.2798  1.4824 -0.6728
15604SOL    HW248007   7.577   7.413   1.065 -0.5242 -0.5811  0.6625
15605SOL     OW48008   7.662   5.416   3.351 -0.2431 -0.0915 -0.3694
15605SOL    HW148009   7.669   5.332   3.306 -0.8977 -0.8223  0.8407
15605SOL    HW248010   7.585   5.407   3.406 -0.0358  1.1401  0.1494
15606SOL     OW48011   3.209   2.483   0.482  0.3160 -0.2727  0.5487
15606SOL    HW148012   3.228   2.526   0.399  0.0354 -0.7914  0.2044
15606SOL    HW248013   3.293   2.481   0.529 -0.0194  2.3123  1.4028
15607SOL     OW48014   3.042   4.685   4.013  0.0282  0.7591 -0.1424
15607SOL    HW148015   3.033   4.604   4.064  0.4341  0.9003  0.1598
15607SOL    HW248016   3.021   4.659   3.924 -0.2537  0.4090  0.0199
15608SOL     OW48017   2.103   6.877   0.911 -0.1805  0.5037  0.1691
15608SOL    HW148018   2.190   6.873   0.870  0.0721  0.2979  0.7106
15608SOL    HW248019   2.107   6.954   0.968 -0.4349  0.6321  0.0143
15609SOL     OW48020   7.297   6.977   2.394  0.1881 -0.2396  0.4118
15609SOL    HW148021   7.230   6.980   2.326 -0.4858  1.4561  1.0934
15609SOL    HW248022   7.347   6.898   2.375  0.2988  0.3816 -2.3201
15610SOL     OW48023   1.636   4.100   2.092  0.3042 -0.1340 -0.4843
15610SOL    HW148024   1.694   4.152   2.037  1.5305  0.5477  1.3469
15610SOL    HW248025   1.690   4.074   2.167 -1.5453 -0.0369  0.9727
15611SOL     OW48026   4.492   0.283   4.888 -0.0090 -0.3368 -0.5529
15611SOL    HW148027   4.581   0.272   4.920  0.5541  0.5801 -1.7671
15611SOL    HW248028   4.480   0.377   4.880 -0.5381 -0.5024 -1.9064
15612SOL     OW48029   4.539   6.413   3.122 -0.0786 -0.1634  0.2715
15612SOL    HW148030   4.615   6.376   3.077  1.1518  3.3442 -0.8748
15612SOL    HW248031   4.477   6.431   3.052  0.1316  1.4990  0.4656
15613SOL     OW48032   8.118   4.617   7.774 -0.1310 -0.0357 -0.0061
15613SOL    HW148033   8.158   4.609   7.688  0.2632 -0.1273  0.1832
15613SOL    HW248034   8.186   4.656   7.829  0.9281 -3.1825  1.1578
15614SOL     OW48035   7.426   5.517   5.769  0.0083  0.2215  0.0698
15614SOL    HW148036   7.360   5.537   5.836 -0.5268 -2.1971  0.3469
15614SOL    HW248037   7.375   5.483   5.695  0.8773 -2.1758  0.4781
15615SOL     OW48038   7.800   0.845   4.921  0.2284  0.2474 -0.1480
15615SOL    HW148039   7.844   0.846   5.006 -0.1907 -2.7848  0.2041
15615SOL    HW248040   7.715   0.804   4.938 -1.1255  2.2894 -1.5578
15616SOL     OW48041   7.472   3.627   7.870  0.0041  0.3637  0.2328
15616SOL    HW148042   7.379   3.623   7.847 -0.0225 -0.1743  0.4348
15616SOL    HW248043   7.477   3.700   7.933 -0.1198  1.0190 -0.5023
15617SOL     OW48044   4.423   7.382   8.433 -0.4898 -0.8207  0.3739
15617SOL    HW148045   4.507   7.425   8.417  1.3351 -3.5779  1.6453
15617SOL    HW248046   4.364   7.453   8.458  1.4182  1.2368 -0.6135
15618SOL     OW48047   1.479   4.848   1.777 -0.2693 -0.4103  0.6796
15618SOL    HW148048   1.515   4.800   1.852 -0.6987 -1.0373  0.4932
15618SOL    HW248049   1.390   4.814   1.768 -0.3314 -0.0895  0.0945
15619SOL     OW48050   3.401   0.373   5.710 -0.1014 -0.5473 -0.2343
15619SOL    HW148051   3.423   0.374   5.803 -1.9923  0.4194  0.2576
15619SOL    HW248052   3.412   0.464   5.681  0.2861 -0.8023 -0.9143
15620SOL     OW48053   0.986   0.356   3.313 -0.1191  0.4926  0.0860
15620SOL    HW148054   1.041   0.288   3.276 -0.6236 -0.3601  0.8629
15620SOL    HW248055   0.953   0.405   3.237  1.2094  0.6535 -0.4090
15621SOL     OW48056   6.766   4.238   4.256 -0.6335  0.9366 -0.0323
15621SOL    HW148057   6.805   4.158   4.221  0.9454  1.7231 -0.1908
15621SOL    HW248058   6.723   4.278   4.180  1.7633  2.0385 -0.9283
15622SOL     OW48059   7.028   2.289   5.156  0.1772 -0.3481 -0.1580
15622SOL    HW148060   7.029   2.307   5.250  2.3062  0.4897 -0.2810
15622SOL    HW248061   7.116   2.259   5.136  0.6214  1.9999 -2.2920
15623SOL     OW48062   7.998   6.953   0.164 -0.0671 -0.0676 -0.5133
15623SOL    HW148063   7.944   6.886   0.206  0.3205  1.2311  2.3675
15623SOL    HW248064   7.947   7.033   0.172  0.9026  0.5890 -0.6762
15624SOL     OW48065   0.237   2.346   1.891 -0.9030  0.5796  0.5266
15624SOL    HW148066   0.270   2.258   1.909  0.5911  1.0998  0.4524
15624SOL    HW248067   0.191   2.371   1.971  1.2204  0.8507  1.7353
15625SOL     OW48068   5.936   6.835   3.382 -0.0089 -0.3293 -0.1612
15625SOL    HW148069   5.880   6.888   3.326 -0.1360 -0.4547 -0.1535
15625SOL    HW248070   5.917   6.866   3.471  1.6722  1.3059 -0.2913
15626SOL     OW48071   1.539   3.816   1.663 -0.3985  0.0146  0.3925
15626SOL    HW148072   1.560   3.832   1.755 -1.6287 -0.1886  0.7189
15626SOL    HW248073   1.610   3.860   1.615  0.2750  0.0986  1.4243
15627SOL     OW48074   5.100   8.068   1.209  0.0673  0.1863 -0.2134
15627SOL    HW148075   5.123   7.990   1.160  0.9949 -0.3178  0.9820
15627SOL    HW248076   5.174   8.084   1.267 -1.8482 -0.6252  2.7036
15628SOL     OW48077   2.230   1.867   4.266  0.7993 -0.0485 -0.2101
15628SOL    HW148078   2.265   1.955   4.282 -0.2535  0.1257  1.3945
15628SOL    HW248079   2.225   1.827   4.353  0.8376 -1.5458 -0.8661
15629SOL     OW48080   6.300   1.136   5.006 -0.8984  0.0258 -0.4682
15629SOL    HW148081   6.317   1.080   5.081  0.0848 -0.1160 -0.7793
15629SOL    HW248082   6.313   1.225   5.039  2.3793 -0.1024 -1.0656
15630SOL     OW48083   2.099   6.453   4.797 -0.9706  0.3704 -0.1091
15630SOL    HW148084   2.041   6.528   4.810  0.5857  1.8658 -1.3772
15630SOL    HW248085   2.160   6.456   4.871 -2.2074 -1.0179  1.0511
15631SOL     OW48086   6.362   7.308   2.523  0.2554 -0.5165  0.4395
15631SOL    HW148087   6.427   7.346   2.464  1.0118  0.4344  1.8121
15631SOL    HW248088   6.281   7.357   2.505  0.2459 -0.8348 -0.3961
15632SOL     OW48089   3.674   6.912   8.284 -0.4839  0.1001  0.0215
15632SOL    HW148090   3.732   6.987   8.295 -1.2777  0.6706  0.4048
15632SOL    HW248091   3.648   6.888   8.373 -0.7427 -0.2251 -0.1383
15633SOL     OW48092   3.912   1.832   1.857 -0.0876 -0.1142 -0.6300
15633SOL    HW148093   3.837   1.820   1.799 -0.4519 -0.0535 -0.1727
15633SOL    HW248094   3.983   1.859   1.798 -0.0202 -1.5949 -1.2829
15634SOL     OW48095   4.615   4.059   7.535  0.2354 -0.4750  0.2863
15634SOL    HW148096   4.658   4.137   7.571  1.2574 -0.8655 -0.0642
15634SOL    HW248097   4.553   4.094   7.471 -0.6584  0.1480  1.4469
15635SOL     OW48098   0.673   3.474   2.450 -0.2926  0.2322 -0.2792
15635SOL    HW148099   0.685   3.555   2.500 -1.9695  0.1767  0.2716
15635SOL    HW248100   0.585   3.444   2.474  1.0700 -2.9968  1.3356
15636SOL     OW48101   6.850   3.301   5.816  0.2858  0.3511 -0.1599
15636SOL    HW148102   6.885   3.216   5.843  2.5077  1.0194 -0.7408
15636SOL    HW248103   6.821   3.287   5.725 -3.1336 -0.7458  0.9404
15637SOL     OW48104   2.241   1.933   7.809 -0.0326 -0.0209  0.2444
15637SOL    HW148105   2.190   1.906   7.732  0.0772  2.1676 -0.6764
15637SOL    HW248106   2.332   1.924   7.782  0.0091  0.4396  0.2208
15638SOL     OW48107   3.071   1.456   3.437  0.3855 -0.3725  0.4813
15638SOL    HW148108   3.087   1.362   3.436  1.4128 -0.2524 -1.5336
15638SOL    HW248109   2.976   1.465   3.432  0.3244 -1.3462 -0.5051
15639SOL     OW48110   2.569   1.598   8.554  0.2916  0.0113 -0.0800
15639SOL    HW148111   2.533   1.682   8.581  1.4442  0.4106  0.2825
15639SOL    HW248112   2.647   1.586   8.608  0.0503 -1.3889  0.0117
15640SOL     OW48113   8.443   8.302   1.554 -0.1824  0.0678  0.2887
15640SOL    HW148114   8.453   8.380   1.609  2.0737  0.8905 -1.1389
15640SOL    HW248115   8.521   8.251   1.571  0.4865  0.2496 -1.9128
15641SOL     OW48116   2.173   8.070   5.563  0.7718 -0.9434  0.3297
15641SOL    HW148117   2.206   8.020   5.638  1.5237 -0.8565  0.0553
15641SOL    HW248118   2.126   8.143   5.603  1.5404 -0.6522  0.7191
15642SOL     OW48119   3.361   5.812   2.675  0.0144 -0.0385 -0.2157
15642SOL    HW148120   3.329   5.854   2.595  0.6354 -0.6274 -0.7845
15642SOL    HW248121   3.282   5.790   2.724 -0.5416 -1.9932 -1.8624
15643SOL     OW48122   3.857   2.589   1.825  0.1770 -0.4490  0.5315
15643SOL    HW148123   3.838   2.521   1.890 -1.6514 -0.4606  0.0412
15643SOL    HW248124   3.771   2.611   1.788  0.8050  1.7000  0.2334
15644SOL     OW48125   2.331   0.762   5.888  0.2854  0.4073 -0.7220
15644SOL    HW148126   2.368   0.690   5.939 -1.9780 -0.7715 -0.5924
15644SOL    HW248127   2.308   0.828   5.953  0.3453  0.2902 -0.5811
15645SOL     OW48128   1.856   0.121   3.044  0.3351 -0.8059 -0.0370
15645SOL    HW148129   1.813   0.203   3.018 -0.4910 -1.4542 -0.7629
15645SOL    HW248130   1.935   0.119   2.990  0.1768 -0.6567 -0.2814
15646SOL     OW48131   5.231   5.571   1.827 -1.0496  0.3161  0.2007
15646SOL    HW148132   5.255   5.581   1.920 -1.0482 -2.1704  0.5231
15646SOL    HW248133   5.145   5.613   1.821 -0.9154  0.7856  1.2544
15647SOL     OW48134   8.220   4.840   0.979 -0.2777 -0.1228  0.6032
15647SOL    HW148135   8.196   4.920   1.027 -0.6195  0.3268 -0.2872
15647SOL    HW248136   8.297   4.807   1.025 -1.5937 -0.7083  2.5435
15648SOL     OW48137   4.689   3.865   0.608 -0.1772 -0.0198 -0.2240
15648SOL    HW148138   4.759   3.862   0.673  1.1074 -1.0441 -1.5861
15648SOL    HW248139   4.627   3.797   0.636  0.0840 -0.0857  0.2056
15649SOL     OW48140   7.747   5.906   4.872 -0.0025 -0.5836  0.1371
15649SOL    HW148141   7.696   5.834   4.835 -0.7272 -1.2665  2.3058
15649SOL    HW248142   7.827   5.865   4.904 -0.6606 -0.6189  1.8962
15650SOL     OW48143   1.858   3.529   5.410 -0.2310  0.0919  0.5105
15650SOL    HW148144   1.791   3.499   5.349  0.1688 -0.3090  0.2572
15650SOL    HW248145   1.825   3.505   5.496 -1.4458  1.8884  0.5890
15651SOL     OW48146   5.788   8.209   5.904  0.9480 -0.5325 -0.0510
15651SOL    HW148147   5.761   8.165   5.824 -0.0167 -0.8709  0.4541
15651SOL    HW248148   5.742   8.293   5.903  2.1027  0.1227 -0.5774
15652SOL     OW48149   2.392   7.200   8.560  0.7809 -0.5235 -0.2156
15652SOL    HW148150   2.305   7.210   8.597  0.2335 -2.0081 -1.0130
15652SOL    HW248151   2.406   7.281   8.510  0.0573 -0.0834  0.2743
15653SOL     OW48152   3.465   6.396   7.725 -0.2144  0.0630  0.2466
15653SOL    HW148153   3.538   6.336   7.738 -1.0126 -1.4092 -1.6577
15653SOL    HW248154   3.441   6.386   7.633 -2.5798  0.7456  0.7124
15654SOL     OW48155   6.806   2.704   5.661 -0.8121 -0.5881  0.4972
15654SOL    HW148156   6.732   2.711   5.721 -0.7250  0.3639  0.5054
15654SOL    HW248157   6.778   2.640   5.596 -1.4927 -0.5204  0.7152
15655SOL     OW48158   5.151   5.569   5.046  0.0756  0.3646  0.1441
15655SOL    HW148159   5.128   5.510   4.975  0.9911  0.7403 -0.4861
15655SOL    HW248160   5.197   5.641   5.004  2.7040 -0.4970  1.2865
15656SOL     OW48161   8.078   5.044   6.341  0.0596 -0.2621  0.2914
15656SOL    HW148162   8.023   5.118   6.368 -1.5741 -1.3531  0.0500
15656SOL    HW248163   8.040   4.968   6.384 -1.2065 -1.7255 -3.0760
15657SOL     OW48164   1.968   6.468   6.215 -0.0625 -0.1008  0.3816
15657SOL    HW148165   1.898   6.435   6.271  0.2746 -0.2237  0.7340
15657SOL    HW248166   1.924   6.527   6.154 -0.4175  0.1395  0.8591
15658SOL     OW48167   8.145   5.470   5.682 -0.7905  0.2962  0.6090
15658SOL    HW148168   8.236   5.499   5.681 -0.2679 -0.9325  2.9924
15658SOL    HW248169   8.138   5.408   5.610  0.3415  0.1723  0.5955
15659SOL     OW48170   7.547   2.505   3.713 -0.7364  0.0798 -0.7720
15659SOL    HW148171   7.611   2.453   3.762 -0.8234  0.2217 -0.5122
15659SOL    HW248172   7.471   2.447   3.705 -0.9450  0.2747 -0.2234
15660SOL     OW48173   3.352   4.330   3.966  0.3360 -0.0616 -0.4528
15660SOL    HW148174   3.280   4.276   3.999  0.7123 -0.2309  0.1097
15660SOL    HW248175   3.314   4.381   3.894 -0.8458  1.2663  1.0481
15661SOL     OW48176   0.674   7.397   4.268 -0.0763 -0.3325  0.0553
15661SOL    HW148177   0.598   7.356   4.308  0.6729 -0.3278  1.5427
15661SOL    HW248178   0.729   7.323   4.240 -0.2966 -0.3323 -0.3915
15662SOL     OW48179   5.440   0.414   4.641  0.2747 -0.0294  0.0388
15662SOL    HW148180   5.536   0.414   4.644  0.4139 -0.6927 -2.3444
15662SOL    HW248181   5.413   0.396   4.731  2.4375 -1.2826  0.5094
15663SOL     OW48182   8.311   3.673   2.473  0.3196  0.3724  0.4917
15663SOL    HW148183   8.355   3.748   2.433 -0.1761  0.6909  0.5326
15663SOL    HW248184   8.228   3.709   2.505  0.8122  0.2183  2.0733
15664SOL     OW48185   7.548   7.444   1.381  0.0069  0.1255  0.4097
15664SOL    HW148186   7.604   7.513   1.416  1.5040 -0.6641 -0.3645
15664SOL    HW248187   7.547   7.459   1.286  0.5159 -1.0174  0.2070
15665SOL     OW48188   8.441   6.135   7.166 -0.0699  0.4551  0.0639
15665SOL    HW148189   8.375   6.200   7.189 -2.5411 -1.8942  0.1285
15665SOL    HW248190   8.417   6.057   7.216  2.1017 -0.8881 -0.8236
15666SOL     OW48191   0.816   2.616   5.559  0.0966 -0.3783 -0.2124
15666SOL    HW148192   0.804   2.651   5.647 -1.4845 -2.1225  0.3266
15666SOL    HW248193   0.874   2.541   5.570 -1.5398 -1.7227 -0.3069
15667SOL     OW48194   0.486   5.769   1.595 -0.1110 -0.4511  0.2057
15667SOL    HW148195   0.539   5.825   1.538  2.0217 -1.5995  0.9556
15667SOL    HW248196   0.399   5.768   1.553  0.3647  1.6298 -0.9747
15668SOL     OW48197   8.238   7.542   0.251 -0.0925 -0.1203 -0.5733
15668SOL    HW148198   8.316   7.587   0.220 -0.1329 -0.7758 -1.6510
15668SOL    HW248199   8.206   7.598   0.323  1.1827  0.3032 -0.3048
15669SOL     OW48200   3.934   5.943   4.313  0.4584  0.8284 -0.0957
15669SOL    HW148201   3.914   5.936   4.406  0.4955  1.3451 -0.0462
15669SOL    HW248202   3.859   5.903   4.269 -0.3622  2.0536  0.1093
15670SOL     OW48203   5.518   3.669   2.762 -0.4322  0.0797  0.5361
15670SOL    HW148204   5.564   3.751   2.781 -1.6699  0.6959  0.9857
15670SOL    HW248205   5.440   3.697   2.713 -0.9746 -0.8050  0.8822
15671SOL     OW48206   5.736   0.572   3.781  0.2945  0.4290 -0.5257
15671SOL    HW148207   5.672   0.514   3.739 -0.3124  0.7860 -0.1088
15671SOL    HW248208   5.730   0.654   3.733 -1.7061  1.4556  1.2918
15672SOL     OW48209   4.024   5.715   6.989  0.1335  0.1844 -0.2737
15672SOL    HW148210   4.104   5.668   7.012  1.2674  0.9514 -2.3804
15672SOL    HW248211   3.996   5.675   6.906 -0.7037  1.0601 -0.4249
15673SOL     OW48212   3.771   3.370   5.421  0.6445  0.0425  0.1738
15673SOL    HW148213   3.774   3.397   5.513  1.3483  0.6366 -0.0138
15673SOL    HW248214   3.774   3.274   5.424  0.3797  0.0470  0.7787
15674SOL     OW48215   5.297   3.042   8.047 -0.6936  0.3248  0.5416
15674SOL    HW148216   5.301   3.137   8.041 -1.1818  0.4267  1.6038
15674SOL    HW248217   5.249   3.025   8.128  1.6707 -0.8294  1.8025
15675SOL     OW48218   7.493   3.631   5.433  0.0869 -0.1965 -0.0463
15675SOL    HW148219   7.484   3.726   5.428 -0.5338 -0.1865  0.8291
15675SOL    HW248220   7.496   3.613   5.527 -0.2455 -1.0758 -0.1936
15676SOL     OW48221   6.726   2.035   1.430  0.3757 -0.3906 -0.1009
15676SOL    HW148222   6.764   2.000   1.350 -0.1685 -0.8691 -0.1561
15676SOL    HW248223   6.668   1.966   1.461 -0.8019  0.5046 -0.2579
15677SOL     OW48224   3.224   8.030   2.672  0.0596 -0.1930  0.6507
15677SOL    HW148225   3.247   8.101   2.732 -1.8974  0.4992  0.6531
15677SOL    HW248226   3.264   7.952   2.711 -1.4691  0.1555  3.1251
15678SOL     OW48227   6.325   3.077   5.029 -0.4040  0.3960 -0.5068
15678SOL    HW148228   6.316   3.122   5.113 -0.5191  0.1426 -0.3832
15678SOL    HW248229   6.339   3.148   4.966 -0.8785  0.6298 -0.3588
15679SOL     OW48230   1.241   6.788   8.410  0.6910 -0.0124 -0.0756
15679SOL    HW148231   1.233   6.872   8.453 -0.3241 -0.5898  0.9125
15679SOL    HW248232   1.328   6.757   8.434  1.2125  0.8935 -0.7404
15680SOL     OW48233   3.637   2.715   3.984 -0.1754 -0.1328  0.3657
15680SOL    HW148234   3.688   2.794   3.967  1.1277 -0.8306  0.8550
15680SOL    HW248235   3.591   2.734   4.066 -1.8918  1.0384 -0.8034
15681SOL     OW48236   5.741   5.872   1.317  0.6580  0.5375  0.0632
15681SOL    HW148237   5.814   5.848   1.259  0.0172 -0.2093 -0.4587
15681SOL    HW248238   5.777   5.865   1.405  1.2521  0.2970 -0.1918
15682SOL     OW48239   2.309   0.209   0.541  0.0837 -0.4451  0.1018
15682SOL    HW148240   2.240   0.210   0.607  1.1394  0.2539  1.2431
15682SOL    HW248241   2.388   0.185   0.589  0.9307  0.3681 -0.8338
15683SOL     OW48242   3.696   7.229   0.440  0.5575  0.0942 -0.0654
15683SOL    HW148243   3.662   7.145   0.471  0.7529  0.5533  1.4509
15683SOL    HW248244   3.627   7.292   0.458  1.3163  0.6481  0.9754
15684SOL     OW48245   5.777   2.131   5.897 -0.2798 -0.1947  0.3908
15684SOL    HW148246   5.809   2.179   5.974 -1.4908  0.0213  0.7828
15684SOL    HW248247   5.845   2.067   5.879  1.3292  1.5763 -0.0814
15685SOL     OW48248   3.011   7.384   2.878  0.1285  0.2116  0.1457
15685SOL    HW148249   2.997   7.384   2.972  1.0207 -0.1540  0.2851
15685SOL    HW248250   2.923   7.394   2.841 -0.0735  2.0935  1.0234
15686SOL     OW48251   1.611   7.470   6.372 -0.2152 -0.0681 -0.2573
15686SOL    HW148252   1.536   7.529   6.365 -0.3165 -0.1918 -0.2044
15686SOL    HW248253   1.667   7.511   6.438  0.4214  0.7422 -1.2621
15687SOL     OW48254   3.565   3.619   4.995 -0.1686 -0.5729  0.1294
15687SOL    HW148255   3.611   3.687   5.045  0.3410  0.0435 -1.1262
15687SOL    HW248256   3.635   3.564   4.960 -0.3519  0.3104 -1.7131
15688SOL     OW48257   6.946   0.640   1.792  0.3034 -0.4940 -0.0197
15688SOL    HW148258   6.952   0.733   1.770  0.2162 -0.5702 -0.3641
15688SOL    HW248259   6.859   0.630   1.830 -0.2960 -0.7258 -1.3966
15689SOL     OW48260   0.077   5.291   4.404  0.0621  0.5233  0.1759
15689SOL    HW148261   0.108   5.282   4.494 -0.2470 -0.0442  0.2262
15689SOL    HW248262   0.155   5.315   4.354  0.5958 -0.8851  0.3019
15690SOL     OW48263   7.530   3.938   2.779  0.5572  0.1097 -0.0909
15690SOL    HW148264   7.522   4.006   2.845  1.9866  1.3744 -1.1628
15690SOL    HW248265   7.441   3.903   2.768  0.0072  1.0641  1.2305
15691SOL     OW48266   4.498   5.536   5.000  0.3884  0.0948 -0.2988
15691SOL    HW148267   4.411   5.568   4.977  0.1665  0.2289  0.6912
15691SOL    HW248268   4.557   5.608   4.977  0.1949  0.1434 -0.6348
15692SOL     OW48269   0.962   2.725   5.348  0.2694 -0.9017  0.0657
15692SOL    HW148270   0.933   2.711   5.438 -0.0097 -3.5852 -0.3693
15692SOL    HW248271   0.897   2.786   5.312 -0.4109 -0.8698  1.2721
15693SOL     OW48272   2.448   0.656   3.622 -0.0488 -0.1369 -0.0063
15693SOL    HW148273   2.420   0.700   3.702  0.2555  0.0780 -0.0152
15693SOL    HW248274   2.475   0.569   3.652  0.2940  0.0257  0.1633
15694SOL     OW48275   3.750   7.628   7.516  0.0022 -0.2664  0.6612
15694SOL    HW148276   3.835   7.586   7.526  0.0795 -0.2493  0.0909
15694SOL    HW248277   3.701   7.569   7.459 -0.5011 -0.4661  1.2848
15695SOL     OW48278   6.418   6.589   5.422 -0.2380 -0.3247  0.3640
15695SOL    HW148279   6.343   6.618   5.370 -2.5338 -1.6742  2.6924
15695SOL    HW248280   6.416   6.646   5.499  1.1259 -0.4601  0.5235
15696SOL     OW48281   7.610   1.753   7.231 -0.5803  0.5867  0.0567
15696SOL    HW148282   7.553   1.810   7.179 -1.6773  0.2986  0.9087
15696SOL    HW248283   7.649   1.694   7.166 -2.1375  0.0504 -0.4319
15697SOL     OW48284   0.077   5.038   1.319  0.0593  0.6194 -0.1140
15697SOL    HW148285   0.016   4.994   1.377  0.2295  0.2451 -0.2150
15697SOL    HW248286   0.124   5.099   1.376 -0.3562  0.8603 -0.0241
15698SOL     OW48287   5.963   7.964   1.046 -0.2193  0.3865 -0.1655
15698SOL    HW148288   5.884   7.937   0.999 -0.8067  1.2816  0.2802
15698SOL    HW248289   5.930   8.011   1.123  0.7455  0.1035  0.4340
15699SOL     OW48290   2.280   2.550   2.806 -0.2115  0.0206  0.7976
15699SOL    HW148291   2.272   2.645   2.796 -3.8416 -0.2575 -0.5461
15699SOL    HW248292   2.263   2.534   2.899 -1.3071  0.6190  0.7180
15700SOL     OW48293   2.259   5.863   6.107  0.5045  0.0345  0.6723
15700SOL    HW148294   2.300   5.844   6.023  1.5563 -0.5267  1.3015
15700SOL    HW248295   2.194   5.793   6.119  0.8333 -0.2743  0.6447
15701SOL     OW48296   4.847   0.760   1.247  0.1160 -0.0345 -0.2189
15701SOL    HW148297   4.814   0.714   1.324 -3.1583  3.1316  0.5406
15701SOL    HW248298   4.788   0.734   1.177  0.6397  0.0860 -0.7055
15702SOL     OW48299   1.311   2.688   0.555  0.8798 -0.0125  0.2525
15702SOL    HW148300   1.233   2.707   0.502 -0.1023  0.1538  1.6970
15702SOL    HW248301   1.338   2.773   0.590  0.9336 -0.2363  0.7764
15703SOL     OW48302   3.873   6.086   0.334 -0.2897 -0.2308 -0.1086
15703SOL    HW148303   3.944   6.026   0.358 -0.8555 -1.3586 -1.1089
15703SOL    HW248304   3.822   6.097   0.415  0.4853 -0.1593  0.3774
15704SOL     OW48305   2.008   3.390   3.054 -0.7384 -0.1946 -0.3900
15704SOL    HW148306   2.005   3.372   3.148 -0.1062  0.5981 -0.2091
15704SOL    HW248307   1.969   3.477   3.045 -2.1172 -0.8450 -1.0402
15705SOL     OW48308   2.001   7.948   8.074 -0.0433 -0.1016 -0.5874
15705SOL    HW148309   2.056   7.910   8.005 -1.0161 -1.7733 -0.4854
15705SOL    HW248310   1.912   7.924   8.049 -0.6853  1.7559 -0.2480
15706SOL     OW48311   6.374   1.923   7.347 -0.1505 -0.8073  0.1060
15706SOL    HW148312   6.445   1.886   7.399 -0.8872 -2.1613  0.2159
15706SOL    HW248313   6.318   1.968   7.410  1.3981  1.7250 -0.1818
15707SOL     OW48314   0.182   3.083   8.152 -0.5176  0.5837  0.0440
15707SOL    HW148315   0.209   3.120   8.236  0.2001  0.8097 -0.2795
15707SOL    HW248316   0.253   3.105   8.092 -0.0620 -1.2983 -0.1614
15708SOL     OW48317   2.930   3.849   7.948  0.1951  0.0495  0.0553
15708SOL    HW148318   2.930   3.940   7.920  0.1055 -0.2461 -0.9672
15708SOL    HW248319   3.016   3.816   7.924 -0.5333 -0.7197 -1.7022
15709SOL     OW48320   2.723   5.394   3.446 -0.7373 -0.1085 -0.5854
15709SOL    HW148321   2.817   5.392   3.432 -0.6517  1.7413 -0.5894
15709SOL    HW248322   2.687   5.335   3.380  0.2925  0.7858 -2.0086
15710SOL     OW48323   7.437   7.536   6.714  0.1266  0.4491  0.3377
15710SOL    HW148324   7.349   7.500   6.700  0.5706  0.0149 -1.5912
15710SOL    HW248325   7.423   7.610   6.774 -1.2509 -0.8283  1.6694
15711SOL     OW48326   1.926   2.837   4.468 -0.2271  0.3900 -0.0334
15711SOL    HW148327   1.916   2.766   4.405 -0.4096  1.3689 -1.1283
15711SOL    HW248328   1.873   2.909   4.433  0.2468  1.2049  0.8554
15712SOL     OW48329   5.684   3.844   6.588  0.1980 -0.2135  0.4127
15712SOL    HW148330   5.650   3.911   6.528  1.7563  0.8345  0.6364
15712SOL    HW248331   5.733   3.784   6.532  0.2821 -0.1609  0.4295
15713SOL     OW48332   4.898   3.442   1.553 -0.5874  0.1328  0.4567
15713SOL    HW148333   4.976   3.495   1.566 -1.3016  0.9698  1.5378
15713SOL    HW248334   4.909   3.403   1.466  1.3222 -0.3060  0.8492
15714SOL     OW48335   1.344   1.093   0.862  0.0301  0.6708 -0.4105
15714SOL    HW148336   1.396   1.130   0.791  1.2555 -1.1129 -0.5263
15714SOL    HW248337   1.371   1.142   0.940  0.7771  0.7860 -0.7337
15715SOL     OW48338   6.934   1.754   0.480  0.3017 -0.4299 -0.7513
15715SOL    HW148339   6.923   1.659   0.468  1.5114 -0.9707  1.6689
15715SOL    HW248340   6.906   1.770   0.570 -0.2902  1.6240 -1.2524
15716SOL     OW48341   0.945   5.683   6.226  0.1892  0.4706 -0.2641
15716SOL    HW148342   1.040   5.679   6.223  0.1989 -0.2251  0.5362
15716SOL    HW248343   0.916   5.672   6.136  0.8893  1.7781 -0.6721
15717SOL     OW48344   3.844   2.530   7.559  0.1574  0.1440 -0.6144
15717SOL    HW148345   3.840   2.604   7.619 -2.0579 -0.3456 -0.0614
15717SOL    HW248346   3.899   2.466   7.603 -1.7999 -0.4053  1.2460
15718SOL     OW48347   3.618   7.270   3.892 -0.1534 -0.3197 -0.1484
15718SOL    HW148348   3.563   7.192   3.881  0.2773 -0.6513  0.0596
15718SOL    HW248349   3.674   7.272   3.815  1.4891 -1.5480  0.9471
15719SOL     OW48350   3.095   8.555   0.139 -0.2941  0.1210 -0.3098
15719SOL    HW148351   3.024   8.562   0.203  1.0198 -1.2848  1.4211
15719SOL    HW248352   3.078   8.472   0.094 -1.0797  0.9905 -1.6744
15720SOL     OW48353   1.541   0.301   2.616  0.0340  0.0643  0.2219
15720SOL    HW148354   1.609   0.352   2.661 -0.3810  0.4875  0.3717
15720SOL    HW248355   1.465   0.306   2.673 -0.9431  1.7488 -1.1279
15721SOL     OW48356   5.956   3.138   7.183  0.1108 -0.3860 -0.2796
15721SOL    HW148357   5.959   3.210   7.120  1.7195 -0.3849 -0.2363
15721SOL    HW248358   5.874   3.151   7.231 -0.1819  0.7377 -1.0503
15722SOL     OW48359   2.137   7.552   5.737  0.3543  0.1480 -0.0034
15722SOL    HW148360   2.179   7.488   5.794 -0.5828 -1.2675 -0.8273
15722SOL    HW248361   2.044   7.545   5.758  0.1483  0.6008 -0.7338
15723SOL     OW48362   6.630   2.428   1.870  0.2312 -0.1936  0.0036
15723SOL    HW148363   6.718   2.392   1.861  0.8802  1.2785  0.0965
15723SOL    HW248364   6.602   2.445   1.780  0.2158 -0.2474 -0.0021
15724SOL     OW48365   7.686   1.197   2.625  0.4756 -0.4278  0.1103
15724SOL    HW148366   7.595   1.226   2.624  0.3508 -0.5351  2.4647
15724SOL    HW248367   7.737   1.276   2.611  0.0406 -0.2892 -0.7249
15725SOL     OW48368   6.788   2.885   8.585 -0.1974 -0.6729  0.1885
15725SOL    HW148369   6.732   2.929   8.650  0.3090  2.0909 -1.0717
15725SOL    HW248370   6.869   2.936   8.585  0.1172 -1.0720 -2.0249
15726SOL     OW48371   5.804   1.205   2.370 -0.4858  0.3270 -0.3696
15726SOL    HW148372   5.756   1.259   2.432  0.6212  1.3629 -0.3751
15726SOL    HW248373   5.820   1.263   2.295  0.2582 -0.1683 -0.6075
15727SOL     OW48374   3.004   6.067   1.494  0.0668  0.0137  0.0746
15727SOL    HW148375   2.990   5.973   1.507 -0.0165  0.1572  1.1718
15727SOL    HW248376   2.937   6.109   1.549 -0.5462  0.7248 -1.1822
15728SOL     OW48377   6.153   2.328   1.567  0.0982 -0.4876  0.0478
15728SOL    HW148378   6.192   2.384   1.500  0.9725 -1.8315 -0.5995
15728SOL    HW248379   6.136   2.387   1.641  1.3485  0.5549 -0.4627
15729SOL     OW48380   7.577   7.206   5.582  0.2700 -0.2102  0.1735
15729SOL    HW148381   7.624   7.283   5.614 -1.0114  0.2195  1.0807
15729SOL    HW248382   7.562   7.225   5.489 -1.3173  1.3645  0.6835
15730SOL     OW48383   3.917   6.075   2.250  0.1829  1.3474 -0.1272
15730SOL    HW148384   3.966   6.108   2.325 -0.3115  1.1955  0.2641
15730SOL    HW248385   3.880   6.154   2.210 -0.0173  1.3819  0.1199
15731SOL     OW48386   4.116   1.217   7.240  0.6334 -0.3557 -0.1710
15731SOL    HW148387   4.049   1.258   7.296  0.0276 -0.8211 -0.5469
15731SOL    HW248388   4.069   1.148   7.193  1.1878 -0.1362 -1.0686
15732SOL     OW48389   1.857   0.125   5.177 -0.5741 -0.4658 -0.1412
15732SOL    HW148390   1.848   0.092   5.087 -0.0150  0.1681 -0.4328
15732SOL    HW248391   1.928   0.189   5.172 -0.6991 -0.2574  0.7079
15733SOL     OW48392   4.758   8.581   4.219 -0.4177 -0.3439  0.2887
15733SOL    HW148393   4.667   8.563   4.194 -0.5994  1.4926 -0.5970
15733SOL    HW248394   4.751   8.617   4.308 -0.6535  0.3525  0.0006
15734SOL     OW48395   1.299   5.354   4.318 -0.1863  0.3456  0.3697
15734SOL    HW148396   1.237   5.306   4.373 -1.8000  1.5946 -0.2751
15734SOL    HW248397   1.244   5.411   4.264  1.3354 -0.3971 -2.1556
15735SOL     OW48398   4.303   1.217   3.561  0.0659  0.2072  0.2729
15735SOL    HW148399   4.372   1.239   3.624 -0.5579  1.6477  0.5062
15735SOL    HW248400   4.227   1.194   3.615 -0.2903  0.8420  0.0593
15736SOL     OW48401   6.634   2.686   4.615 -0.4942 -0.0638  0.2084
15736SOL    HW148402   6.661   2.772   4.583  0.1301 -1.0555 -2.1912
15736SOL    HW248403   6.540   2.694   4.631 -0.3104  1.2305  0.7329
15737SOL     OW48404   5.246   4.675   3.013  0.6460 -0.0340  0.1640
15737SOL    HW148405   5.323   4.732   3.022  0.5654  0.1602 -0.3548
15737SOL    HW248406   5.190   4.720   2.950 -0.0557 -0.0057  0.8030
15738SOL     OW48407   5.285   1.078   0.700 -0.0309 -0.3610  0.6764
15738SOL    HW148408   5.351   1.013   0.677  1.6602  1.2122  0.9175
15738SOL    HW248409   5.311   1.109   0.787  0.4497  2.1245 -0.2877
15739SOL     OW48410   6.833   6.280   3.443  0.3907 -0.3049 -0.0353
15739SOL    HW148411   6.847   6.313   3.355 -1.4359 -1.4834 -0.8224
15739SOL    HW248412   6.789   6.352   3.489  0.8153  0.0911 -0.2365
15740SOL     OW48413   4.409   1.970   2.597 -0.6934  0.1302 -0.0119
15740SOL    HW148414   4.466   2.044   2.621 -0.9862  0.5692 -0.6566
15740SOL    HW248415   4.325   2.011   2.576 -1.3275 -0.5276  1.1389
15741SOL     OW48416   1.403   5.224   2.054  0.2255 -0.1224 -0.2969
15741SOL    HW148417   1.387   5.161   1.984 -0.2107 -1.8588  1.2762
15741SOL    HW248418   1.330   5.211   2.114  0.8497  0.9623  0.7311
15742SOL     OW48419   1.601   2.837   7.486 -0.4806  0.3281 -0.1662
15742SOL    HW148420   1.692   2.818   7.462 -0.6670 -2.6112  1.0904
15742SOL    HW248421   1.555   2.754   7.475 -3.9858  2.3991 -4.3212
15743SOL     OW48422   7.081   5.764   0.925 -0.0676 -0.0188  0.0220
15743SOL    HW148423   7.161   5.801   0.887  0.2930  0.9481  1.6609
15743SOL    HW248424   7.048   5.832   0.984 -1.8015 -0.6272 -0.1770
15744SOL     OW48425   7.045   4.809   4.424  0.0477 -0.0100 -0.3394
15744SOL    HW148426   7.037   4.803   4.329  1.4389  0.6038 -0.5172
15744SOL    HW248427   7.130   4.850   4.439 -0.0698 -0.2457  1.1804
15745SOL     OW48428   0.879   7.819   2.809  0.2672  0.0611  0.3434
15745SOL    HW148429   0.836   7.820   2.894  1.5390 -0.1352  1.0153
15745SOL    HW248430   0.850   7.738   2.768  0.5147 -0.4085  1.0721
15746SOL     OW48431   7.822   1.604   0.480  0.4568  0.5990  0.3626
15746SOL    HW148432   7.886   1.588   0.548  1.7854 -0.0285 -0.9864
15746SOL    HW248433   7.842   1.540   0.412 -0.0726  1.9472 -1.1217
15747SOL     OW48434   6.969   1.532   1.603 -0.0774  0.0199  0.9194
15747SOL    HW148435   6.917   1.598   1.557 -1.8341 -1.7003  0.3101
15747SOL    HW248436   6.973   1.564   1.694 -1.5714  0.6020  0.8119
15748SOL     OW48437   4.976   5.587   0.193 -0.2109  0.1668  0.2546
15748SOL    HW148438   4.903   5.607   0.135 -0.6899 -1.0576  0.3967
15748SOL    HW248439   4.979   5.660   0.255 -0.8377  0.5918 -0.2078
15749SOL     OW48440   2.089   6.183   4.882 -0.0349 -0.5523 -0.4718
15749SOL    HW148441   2.160   6.169   4.819  0.8913  0.5515  0.2646
15749SOL    HW248442   2.043   6.261   4.849  1.7446  1.3489  1.2066
15750SOL     OW48443   2.573   0.186   4.849  0.3506  0.0631  0.1278
15750SOL    HW148444   2.586   0.171   4.756 -0.3349 -0.5567  0.1234
15750SOL    HW248445   2.651   0.150   4.891 -0.3737 -1.8458 -0.0430
15751SOL     OW48446   1.404   1.046   5.261  0.5222  0.3814 -0.6105
15751SOL    HW148447   1.365   0.962   5.284  0.6982  0.5261  0.2617
15751SOL    HW248448   1.377   1.105   5.331 -1.1163  1.5382 -2.1275
15752SOL     OW48449   6.770   6.114   8.169  0.2393 -0.7290 -0.2784
15752SOL    HW148450   6.771   6.025   8.206 -0.8276 -0.7442 -0.2714
15752SOL    HW248451   6.738   6.169   8.241 -1.3390 -0.6799 -0.9969
15753SOL     OW48452   7.390   4.823   1.587  0.3502 -0.0413  0.3245
15753SOL    HW148453   7.335   4.885   1.635  0.5043  0.6086 -0.3231
15753SOL    HW248454   7.448   4.878   1.534  0.2639 -0.7281 -0.5140
15754SOL     OW48455   8.388   1.114   0.210  0.3398  0.1573 -0.4608
15754SOL    HW148456   8.295   1.133   0.225  0.0254  0.5223 -2.5813
15754SOL    HW248457   8.401   1.132   0.117  2.5831  0.2215 -0.1693
15755SOL     OW48458   1.315   3.165   1.691  0.5523 -0.0721 -0.5730
15755SOL    HW148459   1.351   3.136   1.607  0.5156 -1.5133 -0.1092
15755SOL    HW248460   1.353   3.106   1.755 -0.9826 -0.2860  0.1822
15756SOL     OW48461   6.622   2.606   5.280  0.2963 -0.3346 -0.0542
15756SOL    HW148462   6.702   2.652   5.307  0.7850 -1.2960  0.1969
15756SOL    HW248463   6.596   2.648   5.198  0.5113  0.6270  0.3578
15757SOL     OW48464   6.147   7.769   1.929  0.2279  0.3054  0.1109
15757SOL    HW148465   6.063   7.776   1.884 -1.4523 -2.1844  2.5084
15757SOL    HW248466   6.137   7.822   2.008 -0.7471 -2.9415  2.3816
15758SOL     OW48467   4.790   2.018   1.532  0.2905 -0.2637  0.5377
15758SOL    HW148468   4.820   1.928   1.544  3.5308  0.6063  0.0237
15758SOL    HW248469   4.865   2.072   1.558 -0.6240  2.2168 -1.5146
15759SOL     OW48470   6.321   0.658   5.703 -0.7480  0.1022 -0.2938
15759SOL    HW148471   6.385   0.595   5.669  0.2578  1.0897 -0.2811
15759SOL    HW248472   6.290   0.705   5.625 -1.8602 -0.7049 -0.3653
15760SOL     OW48473   3.129   4.236   8.058 -0.6213 -0.9677 -0.3980
15760SOL    HW148474   3.187   4.284   7.999 -1.0854 -0.2563 -0.2927
15760SOL    HW248475   3.188   4.185   8.114 -0.1042 -0.4275 -0.4386
15761SOL     OW48476   1.190   1.313   4.756  0.6000  0.0751  0.4843
15761SOL    HW148477   1.160   1.403   4.769  1.9449  0.6620 -0.2583
15761SOL    HW248478   1.285   1.319   4.755  0.7766 -1.5643  1.7271
15762SOL     OW48479   0.941   0.602   0.839  0.0359 -0.0756  0.2997
15762SOL    HW148480   1.002   0.529   0.853  0.8910  0.7321  0.8239
15762SOL    HW248481   0.948   0.655   0.918 -1.1901  0.1557  0.2689
15763SOL     OW48482   5.926   7.537   6.423 -0.4499 -0.1813  0.4249
15763SOL    HW148483   5.952   7.455   6.381 -1.1843  0.1988 -0.8531
15763SOL    HW248484   5.993   7.600   6.397 -0.3414 -0.1875  0.6936
15764SOL     OW48485   1.865   6.705   6.093 -0.4755  0.2631  0.2268
15764SOL    HW148486   1.771   6.689   6.097 -0.5830  1.1065  1.9748
15764SOL    HW248487   1.873   6.800   6.099  0.4966  0.1781  0.4448
15765SOL     OW48488   6.872   5.213   0.780 -0.1359 -0.6230  0.6698
15765SOL    HW148489   6.858   5.192   0.873 -1.8251 -0.1543  0.5584
15765SOL    HW248490   6.933   5.145   0.749  1.5022 -0.0208  2.3946
15766SOL     OW48491   1.836   7.740   2.296  0.1459  0.0917 -0.2834
15766SOL    HW148492   1.910   7.712   2.242  0.6136 -0.1698  0.4832
15766SOL    HW248493   1.781   7.662   2.304  0.1265  0.1038 -0.2964
15767SOL     OW48494   4.863   1.872   7.559 -0.4634 -0.1805  0.0342
15767SOL    HW148495   4.879   1.899   7.469  0.2757  0.6943  0.4048
15767SOL    HW248496   4.923   1.799   7.573 -0.5858 -0.3220 -0.1951
15768SOL     OW48497   3.987   3.870   0.255  0.1354 -0.1245  0.1049
15768SOL    HW148498   4.026   3.919   0.328  0.6274 -0.4235  0.0501
15768SOL    HW248499   4.047   3.796   0.241 -0.2491 -0.3773 -0.2418
15769SOL     OW48500   7.587   4.510   8.052  0.1981 -0.8090 -0.5652
15769SOL    HW148501   7.628   4.591   8.022  0.7407 -1.4751 -1.6971
15769SOL    HW248502   7.658   4.445   8.051 -0.5002 -1.5952 -0.9434
15770SOL     OW48503   8.387   7.116   2.393  0.7126 -0.6343 -0.0095
15770SOL    HW148504   8.427   7.201   2.411  0.7004 -0.1119 -2.1847
15770SOL    HW248505   8.444   7.075   2.329  0.8850 -2.4562  1.2332
15771SOL     OW48506   3.131   1.134   6.556 -0.4288  0.0353 -0.0593
15771SOL    HW148507   3.097   1.141   6.645  0.3482  0.1103  0.2404
15771SOL    HW248508   3.197   1.064   6.561  1.5803  1.8227  0.0774
15772SOL     OW48509   8.561   4.255   4.290  0.2482  0.2710 -0.3987
15772SOL    HW148510   8.654   4.277   4.289  0.1631  0.7077  0.1473
15772SOL    HW248511   8.556   4.166   4.256  0.8037  0.4640 -0.9864
15773SOL     OW48512   0.809   7.428   1.329 -0.2139  0.1105 -0.4716
15773SOL    HW148513   0.743   7.472   1.276 -1.3436 -0.4740  0.3897
15773SOL    HW248514   0.812   7.478   1.411  0.3626  0.0949 -0.4792
15774SOL     OW48515   8.249   3.089   3.183 -0.2194  0.3922  0.3478
15774SOL    HW148516   8.215   3.005   3.152 -0.2199  0.2245  0.7893
15774SOL    HW248517   8.283   3.069   3.270  0.4316  0.6990  0.1650
15775SOL     OW48518   2.543   3.634   4.371  0.2226 -0.1113 -0.4530
15775SOL    HW148519   2.573   3.560   4.424  1.2424  1.2507  0.9619
15775SOL    HW248520   2.473   3.674   4.422  0.6952  0.7728 -0.4683
15776SOL     OW48521   6.642   0.972   3.030  0.6655  0.0498  0.2019
15776SOL    HW148522   6.716   0.911   3.026 -0.9575 -1.9794 -1.9730
15776SOL    HW248523   6.600   0.954   3.113  1.3343 -0.3928  0.4553
15777SOL     OW48524   0.071   8.524   4.756  0.1748  0.6208  0.2088
15777SOL    HW148525   0.005   8.593   4.762  0.0304  0.6584 -1.2746
15777SOL    HW248526   0.154   8.570   4.743  0.2010  0.5437  0.0939
15778SOL     OW48527   1.513   6.660   3.028 -0.6265 -0.1704 -0.0444
15778SOL    HW148528   1.594   6.622   3.064 -0.4989 -1.1573 -1.2657
15778SOL    HW248529   1.443   6.603   3.061 -0.5320 -0.9302 -1.0777
15779SOL     OW48530   3.601   8.507   7.305  0.5228 -0.1280  0.3111
15779SOL    HW148531   3.641   8.569   7.365 -0.6500  1.7822 -0.7708
15779SOL    HW248532   3.645   8.523   7.221 -0.2001 -0.3101 -0.1174
15780SOL     OW48533   1.375   3.895   2.854 -0.0852 -0.2299  0.4192
15780SOL    HW148534   1.421   3.959   2.799 -0.8695  0.0265  0.0407
15780SOL    HW248535   1.382   3.813   2.805 -0.6818 -0.0271 -0.0074
15781SOL     OW48536   4.945   3.556   2.892 -0.3399 -0.1032 -0.2022
15781SOL    HW148537   4.875   3.620   2.907 -1.1406 -1.1839  0.7745
15781SOL    HW248538   4.916   3.476   2.935  1.0860 -0.8686 -0.5674
15782SOL     OW48539   6.884   6.934   1.396  0.1096 -0.1417 -0.6635
15782SOL    HW148540   6.843   6.849   1.376  0.9011 -0.1744 -2.3554
15782SOL    HW248541   6.976   6.914   1.409  0.0518  0.2771  0.4245
15783SOL     OW48542   5.794   3.510   5.125  0.2930 -0.4809  0.1027
15783SOL    HW148543   5.761   3.590   5.084  1.9720  0.2671  0.1545
15783SOL    HW248544   5.818   3.453   5.052  0.2100 -0.4794  0.0733
15784SOL     OW48545   2.785   7.240   5.588 -0.4458  0.0656  0.7484
15784SOL    HW148546   2.853   7.173   5.590  0.4094  0.7531 -1.6857
15784SOL    HW248547   2.774   7.267   5.679  0.3110 -2.2313  1.5651
15785SOL     OW48548   0.338   7.582   6.729  0.7132  0.3395  0.9975
15785SOL    HW148549   0.270   7.571   6.662  0.2225 -0.8316  1.6627
15785SOL    HW248550   0.351   7.677   6.735  0.2341  0.5027 -0.2182
15786SOL     OW48551   6.144   0.731   6.118  0.7221  0.1977 -0.2566
15786SOL    HW148552   6.164   0.814   6.163 -0.2232  0.1154  0.3600
15786SOL    HW248553   6.229   0.693   6.097  1.1838  1.7148 -1.2938
15787SOL     OW48554   7.667   2.792   5.896 -0.3447  0.2445 -0.2146
15787SOL    HW148555   7.599   2.859   5.902 -1.3787 -0.3464 -3.4180
15787SOL    HW248556   7.619   2.710   5.891  0.7656 -0.4699  0.5387
15788SOL     OW48557   8.376   5.196   4.642  0.3675 -0.1439  0.5369
15788SOL    HW148558   8.409   5.185   4.552 -1.0066 -0.2318  0.0133
15788SOL    HW248559   8.373   5.107   4.677 -1.0602 -0.3620 -0.0836
15789SOL     OW48560   5.651   3.996   1.125  0.6915 -0.1610  0.0289
15789SOL    HW148561   5.728   3.973   1.177  1.2093 -0.4898 -0.8649
15789SOL    HW248562   5.674   3.972   1.035 -0.1256  0.5387 -0.3856
15790SOL     OW48563   7.058   4.536   2.848 -0.0405  0.8057 -0.4123
15790SOL    HW148564   7.066   4.592   2.771 -0.6449  0.5309 -0.6871
15790SOL    HW248565   6.963   4.530   2.864  0.0233  0.0623 -0.2451
15791SOL     OW48566   8.400   2.071   3.572  0.0470 -0.6635 -0.0584
15791SOL    HW148567   8.418   2.018   3.650  0.6429 -0.6613 -0.1913
15791SOL    HW248568   8.425   2.160   3.598 -0.4811 -0.5245 -0.0022
15792SOL     OW48569   1.869   7.266   7.723  0.1420  0.1629 -1.1831
15792SOL    HW148570   1.878   7.271   7.818  2.0410 -2.3511 -1.1124
15792SOL    HW248571   1.789   7.315   7.704 -0.1767  0.9484  1.6531
15793SOL     OW48572   7.198   5.913   5.483 -0.0135 -0.0995  0.0693
15793SOL    HW148573   7.203   5.890   5.391 -0.8281 -1.7853  0.4021
15793SOL    HW248574   7.278   5.876   5.522  0.7478  1.3205 -0.0548
15794SOL     OW48575   6.143   7.305   4.094 -0.7692  0.2702  0.0628
15794SOL    HW148576   6.078   7.375   4.096 -0.3318  0.6662  1.3235
15794SOL    HW248577   6.092   7.225   4.081 -1.4074  0.6733  0.0543
15795SOL     OW48578   0.157   0.774   2.190  0.2216 -0.5495 -0.5768
15795SOL    HW148579   0.107   0.714   2.134  0.4965 -0.7537 -0.6103
15795SOL    HW248580   0.232   0.722   2.219 -0.3304 -0.7029  0.6432
15796SOL     OW48581   2.883   1.170   2.527  0.0303 -0.4569  0.0528
15796SOL    HW148582   2.834   1.201   2.603  0.9604  0.9743  0.1049
15796SOL    HW248583   2.893   1.076   2.542  0.2087 -0.2101  1.7080
15797SOL     OW48584   7.449   0.311   4.405  0.4277  0.0529  0.1564
15797SOL    HW148585   7.493   0.268   4.332 -1.2984 -0.6683 -0.5193
15797SOL    HW248586   7.443   0.403   4.378  0.4781 -0.0658 -0.2584
15798SOL     OW48587   0.591   8.228   8.249 -0.3554 -0.0793  0.3350
15798SOL    HW148588   0.501   8.215   8.277 -0.6972 -0.7759 -1.0085
15798SOL    HW248589   0.643   8.174   8.309 -0.9859 -0.9767  0.0896
15799SOL     OW48590   7.095   7.032   8.136  0.8940 -0.1471 -0.2377
15799SOL    HW148591   7.082   6.937   8.146 -0.0997 -0.4183 -3.1541
15799SOL    HW248592   7.177   7.039   8.087  1.2450  0.5613  0.4360
15800SOL     OW48593   1.338   6.648   4.307  0.5988 -0.0554  0.4929
15800SOL    HW148594   1.347   6.658   4.213 -0.7256  0.6232  0.4232
15800SOL    HW248595   1.251   6.611   4.320  0.5207  0.4194  1.4718
15801SOL     OW48596   6.454   8.153   4.732  0.4939  0.5359  0.0402
15801SOL    HW148597   6.463   8.202   4.650 -1.6462  0.9045 -0.0422
15801SOL    HW248598   6.473   8.218   4.800 -1.0899  1.2108 -0.1097
15802SOL     OW48599   6.900   7.209   7.516  0.3366 -0.5211  0.6308
15802SOL    HW148600   6.911   7.123   7.475  0.1180 -0.0591 -0.4195
15802SOL    HW248601   6.833   7.195   7.582  0.8419 -1.3278  0.9891
15803SOL     OW48602   8.056   5.291   0.436  0.0826  0.0019  0.1901
15803SOL    HW148603   7.991   5.354   0.467  0.9591  0.4822  1.1483
15803SOL    HW248604   8.053   5.220   0.500  1.3798  0.6505  1.0459
15804SOL     OW48605   6.066   4.494   3.542 -0.0007  0.5236 -0.8161
15804SOL    HW148606   6.039   4.577   3.583  1.0957  0.4163  0.1617
15804SOL    HW248607   6.137   4.518   3.483  1.0937  0.1667  0.3041
15805SOL     OW48608   6.068   5.786   4.976 -0.2112  0.4070  0.8964
15805SOL    HW148609   6.021   5.869   4.971 -1.7745 -0.3835  1.7452
15805SOL    HW248610   5.999   5.719   4.980  1.0036 -0.9239  0.4878
15806SOL     OW48611   3.933   8.061   0.238 -0.6257  0.2161 -0.0440
15806SOL    HW148612   4.022   8.086   0.214 -0.4869 -0.0576  0.1859
15806SOL    HW248613   3.878   8.131   0.201 -0.4070 -0.1134 -1.0129
15807SOL     OW48614   1.472   7.486   7.461  0.3943  0.4237 -0.5082
15807SOL    HW148615   1.520   7.528   7.390 -2.9231  2.1923 -1.9404
15807SOL    HW248616   1.417   7.421   7.418 -1.8707  1.6994  0.2874
15808SOL     OW48617   7.151   7.793   5.697 -0.0980  0.5137  0.2050
15808SOL    HW148618   7.091   7.839   5.638 -0.5697 -1.1688 -0.6786
15808SOL    HW248619   7.094   7.736   5.749  0.7330 -3.0167 -2.3402
15809SOL     OW48620   3.306   0.677   3.108 -0.0049  0.9578  0.1442
15809SOL    HW148621   3.256   0.759   3.111  0.9752  1.5753  2.7796
15809SOL    HW248622   3.352   0.674   3.192 -0.4344 -2.5770  0.4387
15810SOL     OW48623   0.283   0.284   7.347  0.2391 -0.3946  0.6989
15810SOL    HW148624   0.305   0.377   7.349 -1.8013  0.2410 -1.4632
15810SOL    HW248625   0.292   0.255   7.437  2.5101  1.4571  1.1669
15811SOL     OW48626   8.390   3.486   5.557 -0.1089  0.4001  0.7594
15811SOL    HW148627   8.317   3.542   5.582 -1.9194 -1.4258 -0.1624
15811SOL    HW248628   8.396   3.421   5.627 -0.9751 -0.8664 -0.2912
15812SOL     OW48629   3.753   6.864   4.320  0.0394 -1.0246  0.1570
15812SOL    HW148630   3.743   6.778   4.360 -0.5287 -0.9065  0.2779
15812SOL    HW248631   3.820   6.852   4.254 -0.9207 -1.8714 -0.6986
15813SOL     OW48632   6.640   0.218   4.052  0.0824 -0.3385 -0.0544
15813SOL    HW148633   6.638   0.252   3.963  0.8510  0.2237  0.1304
15813SOL    HW248634   6.646   0.297   4.107  1.1861 -0.7340  0.4131
15814SOL     OW48635   2.065   6.980   8.394 -0.3695  0.2025  0.0798
15814SOL    HW148636   2.078   7.041   8.466 -1.5327 -0.6822  1.1088
15814SOL    HW248637   2.028   6.902   8.436  1.4639 -1.3881 -1.1072
15815SOL     OW48638   5.881   8.295   3.085 -0.2269  0.4012 -0.8520
15815SOL    HW148639   5.879   8.289   2.989 -1.9467  1.7669 -0.9483
15815SOL    HW248640   5.898   8.387   3.103  0.5604  0.0735  0.1853
15816SOL     OW48641   1.536   8.432   8.335 -0.4004 -0.3983  0.4744
15816SOL    HW148642   1.531   8.364   8.402  0.3272  2.1474  3.3083
15816SOL    HW248643   1.627   8.462   8.338 -1.1049  1.8712  0.6112
15817SOL     OW48644   5.563   6.179   6.592 -0.7565 -0.6148  0.0674
15817SOL    HW148645   5.484   6.211   6.550  0.7345  0.8778 -1.8194
15817SOL    HW248646   5.622   6.255   6.594  0.2849 -1.3720  2.3919
15818SOL     OW48647   6.101   2.781   6.098 -0.4947 -0.3896 -0.0289
15818SOL    HW148648   6.161   2.809   6.167  1.5091 -0.7813 -1.5259
15818SOL    HW248649   6.075   2.862   6.054 -0.1271 -0.3114 -0.1042
15819SOL     OW48650   2.505   0.111   1.369 -0.2086  0.4316  0.4608
15819SOL    HW148651   2.492   0.045   1.301 -0.4547  0.4735  0.4653
15819SOL    HW248652   2.473   0.192   1.330 -1.0274  0.3208  0.8835
15820SOL     OW48653   0.527   0.663   2.756  0.1413 -0.2967 -0.5415
15820SOL    HW148654   0.517   0.581   2.803  1.7368 -0.5713 -0.6216
15820SOL    HW248655   0.563   0.638   2.671  0.0733  0.4342 -0.7944
15821SOL     OW48656   4.633   1.414   2.759  0.1245  0.0904  0.0666
15821SOL    HW148657   4.695   1.417   2.832 -1.7123 -1.2380  1.7973
15821SOL    HW248658   4.585   1.333   2.772 -1.7122  0.8734 -1.4289
15822SOL     OW48659   4.368   4.547   4.342 -0.0043 -0.4167 -0.1071
15822SOL    HW148660   4.339   4.460   4.313 -0.2041 -0.0226 -1.1218
15822SOL    HW248661   4.329   4.557   4.429 -0.6106 -1.0334 -0.2949
15823SOL     OW48662   1.463   0.500   2.377  0.8485  0.4096  0.5056
15823SOL    HW148663   1.424   0.561   2.438 -2.0431  0.8359 -1.5542
15823SOL    HW248664   1.487   0.424   2.430  1.3135  1.9103  2.5471
15824SOL     OW48665   0.847   6.050   5.086  0.3227  0.3265  0.9187
15824SOL    HW148666   0.848   6.019   4.996  1.2045 -0.9055  1.3226
15824SOL    HW248667   0.929   6.097   5.097  0.6376 -0.2917  1.3094
15825SOL     OW48668   8.114   6.563   5.327  0.1930  0.5023 -0.8951
15825SOL    HW148669   8.141   6.475   5.303 -0.2350  0.2933 -0.6381
15825SOL    HW248670   8.042   6.583   5.267 -2.1822 -0.7706  1.3168
15826SOL     OW48671   0.866   5.967   5.546  0.3058 -0.0135  0.2233
15826SOL    HW148672   0.948   5.916   5.542  0.6938  0.4082  1.7696
15826SOL    HW248673   0.809   5.915   5.603  0.4265  0.8601  1.1868
15827SOL     OW48674   5.693   4.941   0.284  0.4644 -0.2126  0.4701
15827SOL    HW148675   5.599   4.930   0.296 -0.0020 -0.2027 -2.4986
15827SOL    HW248676   5.727   4.851   0.279  0.9286 -0.2507  3.0414
15828SOL     OW48677   7.053   4.977   8.064  0.2289 -0.2033 -0.3556
15828SOL    HW148678   6.962   4.973   8.034 -0.3019 -1.0380  1.2190
15828SOL    HW248679   7.068   5.071   8.080  0.8583  0.4373 -3.8585
15829SOL     OW48680   5.551   3.222   6.126 -0.2407  0.2967  0.6747
15829SOL    HW148681   5.498   3.159   6.078 -1.4105  2.0266 -0.4306
15829SOL    HW248682   5.627   3.172   6.156  0.6734 -0.8920 -3.1176
15830SOL     OW48683   6.743   1.236   7.931 -0.3939  0.5452  0.0001
15830SOL    HW148684   6.757   1.244   7.836 -1.6401 -0.1825 -0.2671
15830SOL    HW248685   6.749   1.326   7.963  0.1766  0.7908 -0.7431
15831SOL     OW48686   2.839   3.379   5.165  0.5761  0.2740 -0.3807
15831SOL    HW148687   2.754   3.352   5.198  1.0163  0.5483  1.0185
15831SOL    HW248688   2.901   3.321   5.208  1.2544  1.3263  0.0862
15832SOL     OW48689   2.597   4.001   1.045  0.2092  0.0156 -0.2056
15832SOL    HW148690   2.529   3.981   0.980 -0.5673 -0.6332  0.7639
15832SOL    HW248691   2.548   4.026   1.124  1.0601 -1.1846  0.7440
15833SOL     OW48692   2.578   5.133   5.145  0.9131  0.4561 -0.5067
15833SOL    HW148693   2.622   5.181   5.075 -0.4192  2.1390 -0.2408
15833SOL    HW248694   2.487   5.125   5.115  0.4851  0.5780  0.7143
15834SOL     OW48695   4.256   1.795   0.670 -0.2885  0.0359 -0.1834
15834SOL    HW148696   4.349   1.813   0.656  0.1886 -2.1041 -0.0028
15834SOL    HW248697   4.218   1.881   0.690  1.7231  0.8804  0.2063
15835SOL     OW48698   7.095   1.690   4.968 -0.1614  0.8408  0.3002
15835SOL    HW148699   7.002   1.676   4.954 -0.1099 -0.0673  0.7456
15835SOL    HW248700   7.113   1.650   5.053 -0.5870  6.6244  3.6192
15836SOL     OW48701   5.272   2.143   7.892  0.5728 -0.4896  0.2309
15836SOL    HW148702   5.248   2.055   7.921  1.8629 -0.8001  0.4312
15836SOL    HW248703   5.273   2.194   7.973  1.1621 -0.6265  0.3156
15837SOL     OW48704   7.274   4.394   3.827 -0.1372  0.2563  0.1699
15837SOL    HW148705   7.191   4.426   3.861 -0.1633  0.1739  0.1845
15837SOL    HW248706   7.251   4.340   3.752 -0.2027 -0.7755  0.8980
15838SOL     OW48707   6.705   2.406   1.102 -0.3937 -0.3004 -0.2494
15838SOL    HW148708   6.785   2.452   1.126  0.9086 -1.1702 -2.5561
15838SOL    HW248709   6.727   2.313   1.109 -1.2581 -0.5543 -0.6759
15839SOL     OW48710   4.174   6.338   7.329 -0.3289  0.2243  0.3516
15839SOL    HW148711   4.090   6.322   7.372 -0.6097  1.7265  0.4117
15839SOL    HW248712   4.226   6.385   7.395  0.5365 -0.6037  0.2798
15840SOL     OW48713   0.943   0.387   8.531  0.0250  0.2822 -0.1149
15840SOL    HW148714   1.023   0.435   8.508  0.1898 -0.2547 -0.6800
15840SOL    HW248715   0.974   0.301   8.557 -0.3216  0.2899  0.3270
15841SOL     OW48716   7.073   0.532   0.262 -0.1071  0.0052 -0.2328
15841SOL    HW148717   6.994   0.500   0.217 -0.0913  2.2893 -2.0898
15841SOL    HW248718   7.056   0.514   0.354 -2.4336 -0.3674 -0.6531
15842SOL     OW48719   4.029   2.282   7.228  0.3996 -0.0641 -0.7861
15842SOL    HW148720   3.992   2.317   7.147 -1.2899  0.8241  0.2891
15842SOL    HW248721   3.963   2.220   7.259  1.0917 -0.5049 -0.1612
15843SOL     OW48722   1.159   7.900   8.391 -0.0231 -0.4397  0.2841
15843SOL    HW148723   1.068   7.888   8.363  0.2137 -0.8843 -0.3168
15843SOL    HW248724   1.154   7.904   8.487 -0.6667 -0.5516  0.2606
15844SOL     OW48725   5.720   4.056   0.518 -0.6410 -0.2202 -0.5351
15844SOL    HW148726   5.745   4.134   0.568 -0.9868 -0.5325  0.1426
15844SOL    HW248727   5.636   4.079   0.478 -0.7634 -0.2570 -0.3015
15845SOL     OW48728   0.744   7.874   3.828 -0.5451 -0.3805  0.5249
15845SOL    HW148729   0.836   7.865   3.803 -1.1188  1.5134 -2.7988
15845SOL    HW248730   0.747   7.904   3.919  2.0625 -1.1926  0.7810
15846SOL     OW48731   4.283   5.077   0.174 -0.2749 -0.5712 -0.2473
15846SOL    HW148732   4.273   5.162   0.131 -2.3801 -0.6892 -0.0858
15846SOL    HW248733   4.354   5.034   0.127  2.1705  1.9384  0.8180
15847SOL     OW48734   5.215   2.414   2.075  0.2019  0.1542  0.3080
15847SOL    HW148735   5.246   2.500   2.047  0.0490  0.5324  1.2491
15847SOL    HW248736   5.276   2.388   2.144  1.9030 -1.7352 -1.7593
15848SOL     OW48737   0.419   7.334   1.163 -0.5103 -0.0308  0.2280
15848SOL    HW148738   0.387   7.247   1.187  0.2389 -0.0411  1.2773
15848SOL    HW248739   0.378   7.392   1.227 -1.0307  0.3993 -0.4892
15849SOL     OW48740   1.546   7.143   8.500 -0.2918 -0.3162 -0.0348
15849SOL    HW148741   1.626   7.179   8.460 -0.6551  0.6671  0.1016
15849SOL    HW248742   1.566   7.139   8.594 -0.3112 -0.3104 -0.0304
15850SOL     OW48743   5.052   2.231   6.072  0.0616 -0.0182  0.1691
15850SOL    HW148744   4.976   2.176   6.094 -0.1420 -0.2890 -1.1374
15850SOL    HW248745   5.018   2.295   6.010  0.7741  0.2603  0.0619
15851SOL     OW48746   2.935   7.747   8.026 -0.5853  0.5240  0.3285
15851SOL    HW148747   2.846   7.717   8.007 -0.1347 -2.0185  1.8188
15851SOL    HW248748   2.929   7.783   8.115 -0.3107  1.4080  0.0039
15852SOL     OW48749   6.183   4.761   3.277 -0.0319  0.0127  0.1757
15852SOL    HW148750   6.185   4.784   3.370 -0.8523 -0.7440  0.3851
15852SOL    HW248751   6.234   4.831   3.235  1.8464 -0.5511  1.3718
15853SOL     OW48752   2.061   8.334   8.058 -0.0660 -0.4168  0.3821
15853SOL    HW148753   2.108   8.343   7.976 -1.4648  1.2180 -0.3128
15853SOL    HW248754   1.971   8.317   8.033 -0.2824 -1.2709  1.6247
15854SOL     OW48755   1.773   2.969   7.985  0.0447 -0.1277  0.0762
15854SOL    HW148756   1.714   2.960   8.060 -0.6580 -1.0725 -0.5677
15854SOL    HW248757   1.731   2.919   7.915  0.6703  0.7486 -0.9660
15855SOL     OW48758   6.214   0.146   4.384 -0.2271  0.2011 -0.2716
15855SOL    HW148759   6.136   0.127   4.436 -1.7651  3.2268 -1.2602
15855SOL    HW248760   6.196   0.230   4.343  2.3435 -0.3842 -2.9626
15856SOL     OW48761   1.749   4.079   6.394 -0.7091 -0.2170 -0.5668
15856SOL    HW148762   1.830   4.094   6.443 -0.1892  0.6733 -1.6652
15856SOL    HW248763   1.716   3.995   6.428  0.0937 -0.0657  0.6567
15857SOL     OW48764   6.303   4.053   7.966  0.0105  0.3638  0.4846
15857SOL    HW148765   6.328   4.140   7.935 -0.8428  0.6713  0.6521
15857SOL    HW248766   6.210   4.060   7.985 -0.1868 -0.7312 -0.0034
15858SOL     OW48767   7.218   4.342   0.427 -0.7968  0.5006  0.1315
15858SOL    HW148768   7.255   4.424   0.459 -2.2074  1.2706 -0.1577
15858SOL    HW248769   7.144   4.368   0.373  0.3022 -0.8425 -2.1933
15859SOL     OW48770   2.485   1.220   6.183  0.0761  0.3684  0.4301
15859SOL    HW148771   2.563   1.244   6.232 -0.0905  1.9068  0.0039
15859SOL    HW248772   2.431   1.171   6.245  1.4215 -0.8352  0.6794
15860SOL     OW48773   8.037   5.088   3.486 -0.3596  0.3407  0.2412
15860SOL    HW148774   7.966   5.063   3.545 -1.1146  1.6342 -0.0864
15860SOL    HW248775   8.108   5.116   3.544 -1.2103  1.9077  0.5635
15861SOL     OW48776   2.137   2.856   6.336 -0.3133  0.4173 -0.1067
15861SOL    HW148777   2.165   2.948   6.337 -0.3909  0.4586  1.5089
15861SOL    HW248778   2.210   2.810   6.293  0.7855  0.9609  1.0917
15862SOL     OW48779   3.450   5.740   0.966 -0.7308  0.0026 -0.3245
15862SOL    HW148780   3.493   5.804   0.910 -1.3035 -1.5943 -2.7272
15862SOL    HW248781   3.363   5.728   0.926 -0.6056 -2.3061 -0.0456
15863SOL     OW48782   2.703   1.056   7.234 -0.1244 -0.3370 -0.9329
15863SOL    HW148783   2.749   1.009   7.304  0.3887  2.2092  0.5555
15863SOL    HW248784   2.610   1.039   7.250 -0.0052  0.1511  0.3206
15864SOL     OW48785   6.911   0.900   6.577 -0.3352 -0.3123 -0.2119
15864SOL    HW148786   6.846   0.959   6.614  1.4304  1.7904 -0.2827
15864SOL    HW248787   6.872   0.871   6.494 -1.1481  0.9693 -0.3107
15865SOL     OW48788   5.277   3.237   8.300 -0.4149  0.2560 -0.0421
15865SOL    HW148789   5.235   3.273   8.222 -1.6969  0.2041  0.5946
15865SOL    HW248790   5.236   3.151   8.312  2.3467 -1.3763 -1.3429
15866SOL     OW48791   6.756   5.693   6.479  0.9945  0.1536 -0.1641
15866SOL    HW148792   6.753   5.697   6.575 -1.4209 -0.7794 -0.1334
15866SOL    HW248793   6.746   5.783   6.450 -0.5349  0.2134  0.4839
15867SOL     OW48794   6.268   3.082   1.304 -0.5891  0.3948  0.1272
15867SOL    HW148795   6.257   3.057   1.396  0.2660  1.5958  0.5774
15867SOL    HW248796   6.204   3.028   1.257 -0.4530 -0.8468  1.3145
15868SOL     OW48797   2.513   5.241   4.434 -0.0033 -0.2625 -0.1494
15868SOL    HW148798   2.487   5.330   4.409 -1.6106 -0.6836 -0.0361
15868SOL    HW248799   2.594   5.253   4.484 -0.3844  1.1585  0.1557
15869SOL     OW48800   6.206   0.441   1.523 -0.3310  0.1216 -0.0605
15869SOL    HW148801   6.119   0.439   1.563 -0.0925  0.4990  0.4850
15869SOL    HW248802   6.267   0.443   1.597  0.1419  0.0059 -0.4369
15870SOL     OW48803   0.305   1.503   6.158  0.3661 -0.2247 -0.4908
15870SOL    HW148804   0.209   1.504   6.162  0.3500  1.3479 -0.6784
15870SOL    HW248805   0.327   1.572   6.096  1.6476  0.1312  0.3232
15871SOL     OW48806   6.741   1.363   4.838 -0.2007  0.1208  0.0588
15871SOL    HW148807   6.726   1.445   4.792 -1.2964  0.2533  0.6052
15871SOL    HW248808   6.772   1.303   4.770 -0.1803  0.7574 -0.5109
15872SOL     OW48809   7.450   4.885   3.733 -0.0934 -0.4664 -0.0753
15872SOL    HW148810   7.479   4.814   3.675  1.9970  0.6060 -0.4385
15872SOL    HW248811   7.356   4.890   3.718  0.2872 -0.3979 -3.2878
15873SOL     OW48812   4.894   8.539   6.385 -0.6216  0.3976  0.7376
15873SOL    HW148813   4.971   8.483   6.376 -0.2173  0.9693  0.5792
15873SOL    HW248814   4.871   8.534   6.478 -1.9688 -1.8080  0.3611
15874SOL     OW48815   6.443   6.943   5.889 -0.0637  0.0395 -0.0379
15874SOL    HW148816   6.379   7.011   5.867 -1.9356 -0.4769  3.1730
15874SOL    HW248817   6.516   6.991   5.929 -0.0644  0.3694 -0.4260
15875SOL     OW48818   7.887   2.125   8.229 -0.4689 -0.6702  0.1937
15875SOL    HW148819   7.938   2.139   8.309  1.9407 -0.0226 -1.3818
15875SOL    HW248820   7.815   2.188   8.236 -0.5973 -0.9583  2.0370
15876SOL     OW48821   2.322   3.947   3.572 -0.1684 -0.5713  0.4164
15876SOL    HW148822   2.350   3.990   3.491  0.6919 -1.6050  0.1450
15876SOL    HW248823   2.298   4.019   3.630  3.0897  0.4763  0.6830
15877SOL     OW48824   2.916   0.167   6.099  0.4204 -0.2191  0.1104
15877SOL    HW148825   2.929   0.211   6.183 -3.5028  0.9879  0.2998
15877SOL    HW248826   2.915   0.073   6.121 -1.5228  0.0994  1.7119
15878SOL     OW48827   4.972   8.297   6.041 -0.2363  0.0944 -0.1864
15878SOL    HW148828   4.935   8.247   5.969 -0.0601  2.0952 -1.7541
15878SOL    HW248829   5.039   8.240   6.078  1.1923 -0.2331 -3.0272
15879SOL     OW48830   2.391   4.425   2.054  0.0978  0.1877 -0.0250
15879SOL    HW148831   2.317   4.475   2.020 -0.3148  0.0079  0.5855
15879SOL    HW248832   2.435   4.485   2.115  0.2191  0.1581 -0.0822
15880SOL     OW48833   2.002   8.246   6.935  0.2869  0.1442  0.5214
15880SOL    HW148834   1.975   8.233   6.844  0.5962  0.1985  0.4228
15880SOL    HW248835   2.010   8.158   6.970  0.9819  0.0988  0.2590
15881SOL     OW48836   2.415   8.513   4.715  0.8106 -0.0220  0.1497
15881SOL    HW148837   2.327   8.482   4.736  0.6230  0.3362 -0.0948
15881SOL    HW248838   2.461   8.512   4.798  0.4886  0.0527  0.3328
15882SOL     OW48839   6.971   2.625   0.845 -0.2905 -0.2646  0.0806
15882SOL    HW148840   7.002   2.535   0.837  0.3011 -0.0771  0.2263
15882SOL    HW248841   6.893   2.619   0.899 -1.0127 -0.8526 -0.9911
15883SOL     OW48842   2.104   5.378   8.364 -0.3321 -0.0838  0.2175
15883SOL    HW148843   2.058   5.338   8.437 -0.4421  0.6995  0.5916
15883SOL    HW248844   2.115   5.470   8.390  1.4521 -0.2288  0.1545
15884SOL     OW48845   4.024   5.303   5.770 -0.0918 -0.1006 -0.2224
15884SOL    HW148846   4.032   5.356   5.849 -0.8644 -0.1488 -0.1066
15884SOL    HW248847   4.111   5.263   5.759 -0.6236 -2.0959  2.0211
15885SOL     OW48848   6.111   5.389   7.189 -0.2265 -0.0597  0.1449
15885SOL    HW148849   6.183   5.452   7.194  1.3662 -1.7276 -0.6304
15885SOL    HW248850   6.111   5.346   7.275 -0.9918  0.6269  0.5015
15886SOL     OW48851   5.433   0.261   0.968 -0.2913 -0.4222  0.3231
15886SOL    HW148852   5.343   0.256   1.000  0.2797  1.6742  2.5404
15886SOL    HW248853   5.482   0.302   1.039  2.1295 -0.0452 -1.4224
15887SOL     OW48854   8.508   7.819   2.353  0.3429  0.3540  0.0229
15887SOL    HW148855   8.597   7.845   2.331  1.1189 -0.3692  2.0639
15887SOL    HW248856   8.464   7.901   2.376  0.1130  0.8497 -1.9756
15888SOL     OW48857   3.871   8.321   1.462 -0.1738  0.5993 -0.1463
15888SOL    HW148858   3.851   8.358   1.548 -0.2049 -0.3638  0.2780
15888SOL    HW248859   3.787   8.319   1.416 -0.2319  0.7410 -0.0444
15889SOL     OW48860   5.975   3.603   3.537 -0.2711  0.3962 -0.0928
15889SOL    HW148861   5.890   3.559   3.537 -1.1372  1.9737  0.6630
15889SOL    HW248862   6.009   3.591   3.626 -0.2908  0.8184 -0.0244
15890SOL     OW48863   7.565   5.577   1.315 -0.1480  0.2458 -0.3823
15890SOL    HW148864   7.471   5.563   1.306 -0.2785  0.5004  0.4739
15890SOL    HW248865   7.573   5.671   1.332 -0.0261 -0.2192  2.6664
15891SOL     OW48866   7.196   4.302   2.817  0.6122 -0.2444  0.0766
15891SOL    HW148867   7.160   4.387   2.841  2.7854  0.9943 -0.7030
15891SOL    HW248868   7.198   4.252   2.899  0.8638  1.0959  0.9179
15892SOL     OW48869   7.139   6.641   6.708  0.4370 -0.1430 -0.0706
15892SOL    HW148870   7.207   6.583   6.673  0.5538  0.3382 -0.6628
15892SOL    HW248871   7.124   6.704   6.638  1.3008  1.4009  1.0575
15893SOL     OW48872   0.116   3.133   6.037 -0.2575 -0.1353  0.2348
15893SOL    HW148873   0.027   3.164   6.053 -0.1412 -0.8392  2.7145
15893SOL    HW248874   0.169   3.212   6.034 -0.9153  0.2908 -1.2404
15894SOL     OW48875   7.693   7.160   6.005  0.3578  0.2252  0.2978
15894SOL    HW148876   7.623   7.216   5.970  0.3484  0.7879  1.2035
15894SOL    HW248877   7.772   7.214   6.000  0.6849 -0.3110 -0.4602
15895SOL     OW48878   5.552   3.563   6.764 -0.4301  0.5408  0.1954
15895SOL    HW148879   5.610   3.632   6.733 -1.3560  0.4506 -1.8676
15895SOL    HW248880   5.472   3.609   6.790 -1.4859  0.2604 -2.2498
15896SOL     OW48881   2.748   4.583   4.373  0.3234  0.2592  0.6522
15896SOL    HW148882   2.658   4.578   4.406  0.1969 -1.0042  0.1583
15896SOL    HW248883   2.748   4.658   4.314  0.1954  1.6868  2.3815
15897SOL     OW48884   3.351   8.233   5.376  0.5320 -0.1533 -0.2834
15897SOL    HW148885   3.366   8.304   5.314 -1.7791  0.8164  0.1592
15897SOL    HW248886   3.429   8.233   5.431  0.7547  1.8378 -0.5209
15898SOL     OW48887   4.665   4.468   3.385 -0.0922 -0.1452  0.3367
15898SOL    HW148888   4.602   4.519   3.437 -0.8957 -0.8462  0.0904
15898SOL    HW248889   4.735   4.529   3.365 -1.5871  1.2565 -0.9885
15899SOL     OW48890   5.231   2.544   4.340 -0.4864 -0.0154 -0.0290
15899SOL    HW148891   5.294   2.521   4.272  0.8984  1.7273  0.6198
15899SOL    HW248892   5.239   2.474   4.405 -1.2104 -1.2335 -1.1961
15900SOL     OW48893   3.086   5.134   7.702 -0.1507  0.2423 -0.6492
15900SOL    HW148894   3.047   5.218   7.728 -0.9522  0.0980 -1.3118
15900SOL    HW248895   3.091   5.084   7.783 -4.3078 -0.9117 -0.8329
15901SOL     OW48896   8.120   1.453   8.291  0.1434  0.3938  0.4305
15901SOL    HW148897   8.041   1.438   8.344 -0.1471  0.3199 -0.0188
15901SOL    HW248898   8.191   1.459   8.355 -0.1997  0.2697  0.8281
15902SOL     OW48899   7.519   4.146   4.575 -0.2117  0.2460 -0.3855
15902SOL    HW148900   7.434   4.108   4.598  0.1584 -0.4989 -0.2002
15902SOL    HW248901   7.511   4.168   4.482 -0.4381 -0.3155 -0.5053
15903SOL     OW48902   0.430   3.981   1.617 -0.6200  0.1839  0.3825
15903SOL    HW148903   0.462   3.907   1.670  1.1562  2.1858  2.3320
15903SOL    HW248904   0.483   3.979   1.538 -0.0363 -0.1811  0.7780
15904SOL     OW48905   6.117   2.313   3.907  0.3636 -0.2148  0.0057
15904SOL    HW148906   6.040   2.344   3.859  1.4875  0.8771 -1.1675
15904SOL    HW248907   6.121   2.219   3.887  0.8304  0.2173 -2.1861
15905SOL     OW48908   8.435   7.008   0.158 -0.5849 -0.1902  0.4222
15905SOL    HW148909   8.477   7.089   0.188 -0.9585  0.4776 -0.7965
15905SOL    HW248910   8.365   7.038   0.101  1.0084 -1.4116 -2.3449
15906SOL     OW48911   4.317   1.522   7.416 -0.2857 -0.4951  0.2842
15906SOL    HW148912   4.225   1.528   7.438 -0.4238 -1.0858 -0.1084
15906SOL    HW248913   4.348   1.445   7.462 -0.3369 -1.1407 -0.7264
15907SOL     OW48914   1.171   7.176   6.073 -0.0151 -0.2200 -0.2209
15907SOL    HW148915   1.157   7.083   6.093 -0.3488  0.0539  0.8920
15907SOL    HW248916   1.115   7.192   5.997 -0.2917 -0.8325 -0.1565
15908SOL     OW48917   5.947   6.542   4.096  0.1557  0.4018  0.4655
15908SOL    HW148918   6.029   6.507   4.130  0.3658  0.4969  0.0559
15908SOL    HW248919   5.973   6.617   4.042 -0.3062  1.3496  1.5207
15909SOL     OW48920   6.219   0.342   1.134 -0.1172  0.5351 -0.1382
15909SOL    HW148921   6.245   0.383   1.051 -0.1164 -1.0301 -0.9504
15909SOL    HW248922   6.300   0.336   1.184  0.2296 -0.0828 -0.7509
15910SOL     OW48923   3.492   0.872   0.094  0.1622  0.2576  0.0499
15910SOL    HW148924   3.433   0.926   0.042  0.7756 -0.0836 -1.0270
15910SOL    HW248925   3.487   0.785   0.055  1.2524  0.1866  0.0351
15911SOL     OW48926   4.068   1.708   2.830 -0.2837 -0.1627  0.1339
15911SOL    HW148927   3.987   1.661   2.810  0.5292 -1.6081  0.0551
15911SOL    HW248928   4.134   1.665   2.776  0.4125  1.5406 -0.4379
15912SOL     OW48929   7.875   8.243   0.965  0.1946  0.2114 -0.1527
15912SOL    HW148930   7.943   8.251   1.032 -0.6116 -2.4500  1.0960
15912SOL    HW248931   7.920   8.261   0.883  1.6571  1.6323  0.8976
15913SOL     OW48932   2.759   3.775   2.369 -1.0015 -0.2038 -0.1616
15913SOL    HW148933   2.762   3.710   2.298 -0.1845  0.3151 -0.6196
15913SOL    HW248934   2.741   3.858   2.325  0.2455  0.2395  0.1310
15914SOL     OW48935   7.267   1.497   3.523 -0.4981 -0.3735  0.4909
15914SOL    HW148936   7.278   1.449   3.442  1.7492 -1.1591  1.1981
15914SOL    HW248937   7.193   1.557   3.506  1.0863  0.8696 -2.7568
15915SOL     OW48938   3.654   6.665   4.526  0.0715 -0.4251 -0.0873
15915SOL    HW148939   3.631   6.757   4.542  0.2021 -0.3617 -0.2509
15915SOL    HW248940   3.639   6.621   4.610 -1.5259 -0.5763 -0.4102
15916SOL     OW48941   0.950   6.257   6.468 -0.1226 -0.3748 -0.1422
15916SOL    HW148942   0.856   6.262   6.483 -0.4909 -1.8031 -1.5683
15916SOL    HW248943   0.981   6.193   6.532  0.3546  1.8089  1.9280
15917SOL     OW48944   7.402   5.094   2.168 -0.0979 -0.1452  0.2357
15917SOL    HW148945   7.402   5.188   2.180  1.1919 -0.1769  0.6355
15917SOL    HW248946   7.446   5.059   2.245  2.8318 -0.7830 -1.5380
15918SOL     OW48947   6.805   6.151   1.535  0.0308 -0.5588  0.4492
15918SOL    HW148948   6.740   6.221   1.532 -1.2063 -1.7019 -1.4228
15918SOL    HW248949   6.769   6.087   1.596  0.0768 -0.5722  0.4623
15919SOL     OW48950   0.850   0.619   1.268 -0.7594 -0.3332  0.2570
15919SOL    HW148951   0.773   0.654   1.223 -0.2606  0.9057  0.3165
15919SOL    HW248952   0.915   0.688   1.261 -0.3745 -0.4363  2.1154
15920SOL     OW48953   7.540   2.581   1.288  0.6803 -0.2319  0.6471
15920SOL    HW148954   7.512   2.668   1.258 -1.5953 -1.1343 -0.1107
15920SOL    HW248955   7.529   2.525   1.211 -1.2737 -1.8183  1.9664
15921SOL     OW48956   0.066   1.372   5.562 -0.4379 -0.0316 -0.6230
15921SOL    HW148957   0.020   1.413   5.488  0.7490  0.9304 -0.8566
15921SOL    HW248958   0.158   1.370   5.535 -0.0355  0.0080  0.6717
15922SOL     OW48959   2.185   7.905   1.154 -0.0444 -0.1919  0.2627
15922SOL    HW148960   2.184   7.976   1.219  1.4358  1.3995 -1.3427
15922SOL    HW248961   2.104   7.916   1.105  0.0967  0.2864  0.1326
15923SOL     OW48962   2.214   2.148   3.958  0.0455 -0.1700  0.0768
15923SOL    HW148963   2.240   2.077   4.017 -0.8069 -0.6442 -0.1061
15923SOL    HW248964   2.287   2.156   3.897 -0.4232 -1.8368 -0.7596
15924SOL     OW48965   3.280   1.228   7.962  0.1064 -0.1625  0.1502
15924SOL    HW148966   3.351   1.275   8.006  0.5029  0.6356 -1.2954
15924SOL    HW248967   3.200   1.261   8.003  0.4129  1.3315 -0.4058
15925SOL     OW48968   5.184   6.218   5.304 -0.8629  0.0962 -0.0494
15925SOL    HW148969   5.115   6.153   5.322 -1.0683  0.4501  0.4538
15925SOL    HW248970   5.145   6.302   5.330 -0.6796  0.4539 -0.9022
15926SOL     OW48971   3.321   7.615   8.578  0.3486 -0.2156 -0.2559
15926SOL    HW148972   3.278   7.696   8.605  1.0716  0.3565 -0.7788
15926SOL    HW248973   3.276   7.588   8.498 -0.3383 -0.7127  0.2827
15927SOL     OW48974   1.891   2.297   5.362 -0.0599 -0.0147 -0.3078
15927SOL    HW148975   1.812   2.242   5.361  0.4397 -0.7570 -1.8510
15927SOL    HW248976   1.870   2.367   5.424 -1.4011 -0.9573  0.3564
15928SOL     OW48977   3.662   1.564   6.968  0.1454  0.2674  0.0610
15928SOL    HW148978   3.642   1.522   6.885  0.0450  1.4129 -0.5139
15928SOL    HW248979   3.641   1.656   6.954  0.9200  0.6245  1.0846
15929SOL     OW48980   4.874   1.774   3.064  0.3896 -0.1453 -0.4854
15929SOL    HW148981   4.841   1.847   3.011 -0.0294 -0.9877 -1.4335
15929SOL    HW248982   4.967   1.770   3.042  0.2644 -0.3478 -0.9893
15930SOL     OW48983   0.709   4.669   0.734 -0.1855  0.3826  0.1178
15930SOL    HW148984   0.719   4.752   0.780  0.4877 -0.3072  1.2702
15930SOL    HW248985   0.621   4.639   0.757 -0.9427  1.3648 -1.3538
15931SOL     OW48986   7.159   3.217   1.668 -0.1981  0.1672  0.3429
15931SOL    HW148987   7.241   3.190   1.710  0.4114 -1.2129 -1.5961
15931SOL    HW248988   7.176   3.208   1.574 -2.6060 -0.2500 -0.1177
15932SOL     OW48989   0.535   0.454   8.062 -0.5825  0.5599  0.4343
15932SOL    HW148990   0.615   0.402   8.070 -1.2147 -0.4868  0.1031
15932SOL    HW248991   0.562   0.533   8.014  0.1289 -0.0454 -0.1773
15933SOL     OW48992   4.550   0.472   2.740  0.0343 -0.6977  0.7282
15933SOL    HW148993   4.487   0.400   2.736  2.6109 -3.0877 -0.0550
15933SOL    HW248994   4.583   0.479   2.650  0.3804  0.9855  0.9579
15934SOL     OW48995   6.301   6.820   6.517 -0.0067 -0.3466  0.1560
15934SOL    HW148996   6.252   6.900   6.501  1.3012  0.5375  0.3829
15934SOL    HW248997   6.292   6.769   6.436 -3.2272 -1.3582  1.0122
15935SOL     OW48998   4.375   5.451   5.549 -0.2025  0.3295 -0.2555
15935SOL    HW148999   4.297   5.506   5.557 -0.7936 -0.3833 -0.9893
15935SOL    HW249000   4.354   5.371   5.597 -0.7733 -0.7365 -2.1570
15936SOL     OW49001   7.558   0.368   8.388  0.4896 -0.4097  0.3313
15936SOL    HW149002   7.542   0.463   8.386  1.3375 -0.2230 -3.0121
15936SOL    HW249003   7.626   0.357   8.455  0.7838  1.4243  0.3873
15937SOL     OW49004   3.970   2.683   5.645 -0.4621  0.1772 -0.2208
15937SOL    HW149005   4.050   2.698   5.695  0.3669 -1.2956 -1.0487
15937SOL    HW249006   3.917   2.626   5.701  0.2204 -1.0006 -0.7438
15938SOL     OW49007   6.426   1.839   2.286  0.3262 -0.4881 -0.7872
15938SOL    HW149008   6.451   1.931   2.294 -0.2444 -0.2039 -2.0007
15938SOL    HW249009   6.507   1.790   2.301  0.7441  0.2350 -0.6577
15939SOL     OW49010   1.012   6.319   0.584  0.0539 -0.0364 -0.0242
15939SOL    HW149011   1.043   6.339   0.496  0.5661  2.8459  0.7132
15939SOL    HW249012   0.917   6.324   0.578  0.0501 -0.6819 -0.5722
15940SOL     OW49013   5.796   5.899   2.592 -0.0585 -0.7735  0.0492
15940SOL    HW149014   5.747   5.846   2.654  0.1727 -0.8840  0.1408
15940SOL    HW249015   5.791   5.988   2.628  1.6668 -1.1163  1.2823
15941SOL     OW49016   7.438   0.323   7.278 -0.0560  0.0161  0.0581
15941SOL    HW149017   7.488   0.275   7.212  1.4140 -0.0370  1.1536
15941SOL    HW249018   7.497   0.395   7.304 -0.1255 -0.6072  2.0722
15942SOL     OW49019   5.211   5.255   1.099 -0.2995 -0.3822 -1.0780
15942SOL    HW149020   5.159   5.316   1.151 -0.0871 -0.2653 -1.0029
15942SOL    HW249021   5.164   5.248   1.016 -0.4656 -0.3188 -0.9890
15943SOL     OW49022   5.592   5.192   3.350  0.2596  0.9436 -0.1350
15943SOL    HW149023   5.564   5.172   3.439  0.0669  0.1090 -0.3759
15943SOL    HW249024   5.685   5.170   3.349 -0.6143 -3.9480 -1.4212
15944SOL     OW49025   4.807   3.166   7.812 -0.1531  0.6345  0.3334
15944SOL    HW149026   4.828   3.104   7.881  1.2419 -0.9566 -1.3929
15944SOL    HW249027   4.713   3.157   7.798 -0.4230  0.8823  1.8772
15945SOL     OW49028   7.283   8.024   5.925  0.4876 -0.5143 -0.5523
15945SOL    HW149029   7.337   8.099   5.900 -0.8597  0.5600 -0.3797
15945SOL    HW249030   7.287   7.965   5.851 -0.6702  1.0345 -1.9338
15946SOL     OW49031   1.097   6.614   7.283 -0.1607  0.0691  0.4136
15946SOL    HW149032   1.155   6.578   7.215  0.8814  1.3061  0.5987
15946SOL    HW249033   1.035   6.543   7.302  0.8803 -1.0699 -0.2750
15947SOL     OW49034   6.737   0.709   8.351 -0.2582  0.3928 -0.3552
15947SOL    HW149035   6.689   0.780   8.308 -0.1987  2.2554  2.3793
15947SOL    HW249036   6.829   0.736   8.347 -0.0778 -0.2028 -0.4038
15948SOL     OW49037   6.196   5.166   8.562  0.0016  0.0313  0.0523
15948SOL    HW149038   6.139   5.092   8.581 -0.6411  0.6598  0.6210
15948SOL    HW249039   6.158   5.207   8.484  0.6551 -0.5294 -0.5731
15949SOL     OW49040   2.017   3.815   5.253 -0.2272  0.5594 -0.4203
15949SOL    HW149041   1.979   3.857   5.176 -1.7269 -0.8999 -0.5471
15949SOL    HW249042   2.062   3.737   5.218 -1.1792 -0.2794  0.1588
15950SOL     OW49043   1.689   2.318   2.026  0.5954  0.5403  0.8346
15950SOL    HW149044   1.659   2.405   2.052  1.8348  0.5411  2.4053
15950SOL    HW249045   1.663   2.310   1.934  0.6883  2.6697  0.5843
15951SOL     OW49046   3.321   0.812   1.192  0.6590 -0.2230  0.3030
15951SOL    HW149047   3.414   0.800   1.173  0.3180 -0.4420 -1.3798
15951SOL    HW249048   3.318   0.886   1.254  1.8947  0.3922 -0.3521
15952SOL     OW49049   7.881   1.758   1.012 -0.0454  0.0831  0.1581
15952SOL    HW149050   7.959   1.753   1.068 -0.5118  0.9609  0.8865
15952SOL    HW249051   7.838   1.673   1.024  0.0035  0.1591  0.9148
15953SOL     OW49052   0.357   6.639   4.723  0.3127 -0.0950  0.7954
15953SOL    HW149053   0.392   6.663   4.637 -2.3972 -0.2778 -0.4546
15953SOL    HW249054   0.336   6.722   4.765 -0.6253 -0.0484  0.2480
15954SOL     OW49055   2.540   2.167   1.400 -0.1139 -0.0727  0.6741
15954SOL    HW149056   2.557   2.233   1.332 -1.8948 -0.1775  0.0608
15954SOL    HW249057   2.518   2.218   1.478  0.0730  0.0662  0.6350
15955SOL     OW49058   0.179   1.015   3.675  0.1308 -0.1316 -0.6278
15955SOL    HW149059   0.193   0.925   3.645 -0.3046 -0.0692 -1.0447
15955SOL    HW249060   0.138   1.006   3.761 -0.3401 -0.3475 -0.8681
15956SOL     OW49061   0.541   2.199   5.652  0.1604  0.1371 -0.5109
15956SOL    HW149062   0.534   2.252   5.572 -0.4319  0.2631 -0.3792
15956SOL    HW249063   0.503   2.255   5.721  1.3878  0.3509  0.0150
15957SOL     OW49064   0.553   5.458   6.165 -0.5737 -0.5691  0.3139
15957SOL    HW149065   0.612   5.470   6.239 -1.1568  0.8640  0.5825
15957SOL    HW249066   0.601   5.401   6.105  0.7547 -0.0782  0.8697
15958SOL     OW49067   3.897   6.729   1.341 -0.5442 -0.7597  0.7719
15958SOL    HW149068   3.971   6.741   1.400 -1.2401  1.3380  1.3226
15958SOL    HW249069   3.830   6.789   1.374 -1.4807 -0.5434 -1.3345
15959SOL     OW49070   1.396   1.955   7.883 -0.2071 -0.0479  0.2621
15959SOL    HW149071   1.437   2.032   7.845 -0.9606  0.1148 -0.2333
15959SOL    HW249072   1.310   1.950   7.842 -0.6855 -0.3916  1.2651
15960SOL     OW49073   6.855   0.641   6.646 -0.0330  0.3259 -0.0575
15960SOL    HW149074   6.888   0.731   6.638 -0.4382  0.6177  1.1984
15960SOL    HW249075   6.843   0.629   6.741 -0.0041 -1.0512 -0.2093
15961SOL     OW49076   3.661   1.484   3.589 -0.0684 -0.7673  0.3207
15961SOL    HW149077   3.720   1.553   3.558 -0.8388 -0.2421  0.0083
15961SOL    HW249078   3.619   1.450   3.511 -0.1672 -1.1637  0.5407
15962SOL     OW49079   8.604   4.867   5.210 -0.3926 -0.1477  0.2546
15962SOL    HW149080   8.676   4.839   5.267 -0.8748 -2.3299 -0.0997
15962SOL    HW249081   8.529   4.874   5.269 -0.0501  1.6338  0.5359
15963SOL     OW49082   6.481   6.993   0.747  0.1627 -0.3837  0.8533
15963SOL    HW149083   6.505   6.901   0.735  1.9914  0.4034 -3.4713
15963SOL    HW249084   6.556   7.032   0.792  0.5956 -0.5522  0.2875
15964SOL     OW49085   3.173   1.912   3.757  0.2579 -0.3351  0.0446
15964SOL    HW149086   3.207   1.824   3.741  0.2004 -0.2870 -0.3335
15964SOL    HW249087   3.084   1.898   3.789  0.9845 -0.5255  2.1737
15965SOL     OW49088   3.001   3.512   4.170  0.4577 -0.1816  0.7670
15965SOL    HW149089   2.981   3.552   4.255  0.5432 -0.6154  0.9898
15965SOL    HW249090   2.919   3.468   4.145  0.0708  0.8751  0.0986
15966SOL     OW49091   8.468   8.061   3.753  0.8436 -0.0097  0.7415
15966SOL    HW149092   8.441   8.152   3.769 -0.2210 -0.3302  0.8670
15966SOL    HW249093   8.449   8.015   3.834  0.3371 -0.5586  0.3278
15967SOL     OW49094   8.288   2.342   8.543  0.0306 -0.3424 -0.1683
15967SOL    HW149095   8.217   2.399   8.573 -0.2680 -0.9541  0.3106
15967SOL    HW249096   8.257   2.307   8.460 -0.9947 -1.8960  0.7992
15968SOL     OW49097   3.974   5.613   4.206 -0.4629  0.3157 -0.0897
15968SOL    HW149098   3.903   5.650   4.259 -0.2302 -0.8069  1.0598
15968SOL    HW249099   4.051   5.663   4.232 -0.3253 -0.3200  0.7518
15969SOL     OW49100   1.688   1.697   4.694 -0.1261  0.4335  0.1534
15969SOL    HW149101   1.763   1.755   4.689  1.5279 -1.2906  2.5108
15969SOL    HW249102   1.719   1.614   4.658 -1.3774  0.0772 -0.1617
15970SOL     OW49103   2.053   4.575   4.614 -0.3064  0.0850 -0.2570
15970SOL    HW149104   2.102   4.618   4.684 -1.0848  0.3451  0.1369
15970SOL    HW249105   2.075   4.483   4.623  0.5664  0.2711 -0.4538
15971SOL     OW49106   4.561   4.102   6.973  0.3087 -0.3557  0.5204
15971SOL    HW149107   4.576   4.194   6.951  0.3625 -0.8538 -1.7229
15971SOL    HW249108   4.517   4.105   7.058  2.6928  1.6144  1.8506
15972SOL     OW49109   2.080   7.413   4.595 -0.3769 -0.7561 -0.0853
15972SOL    HW149110   2.130   7.491   4.572 -0.5595 -0.3635  0.8204
15972SOL    HW249111   2.146   7.350   4.625 -0.4193 -0.0715  1.5835
15973SOL     OW49112   2.532   1.172   2.611  0.0053 -0.6199  0.1784
15973SOL    HW149113   2.547   1.085   2.647  0.5432 -0.5356  0.1572
15973SOL    HW249114   2.493   1.157   2.525 -0.9225 -0.8274  0.6182
15974SOL     OW49115   5.693   6.674   6.317  0.2189  0.1261  0.1108
15974SOL    HW149116   5.745   6.725   6.379 -1.2648  1.3289  0.4078
15974SOL    HW249117   5.729   6.697   6.231 -0.9316  2.3743  0.1635
15975SOL     OW49118   6.351   3.696   1.306 -1.0929 -0.2270 -0.0864
15975SOL    HW149119   6.412   3.742   1.248 -0.5120 -0.2243  0.5125
15975SOL    HW249120   6.359   3.604   1.279 -1.1967 -0.1636 -0.3391
15976SOL     OW49121   2.499   2.480   7.894  0.5090  0.0914 -0.1630
15976SOL    HW149122   2.506   2.387   7.917  0.1231  0.5130  1.8620
15976SOL    HW249123   2.568   2.522   7.946  0.5039  0.9721 -0.8595
15977SOL     OW49124   8.554   5.845   5.604 -0.2904  0.2278  0.0083
15977SOL    HW149125   8.518   5.933   5.593  1.6692  1.2657  1.3121
15977SOL    HW249126   8.604   5.829   5.524 -1.9703 -0.4211 -0.9517
15978SOL     OW49127   2.756   0.760   1.449  0.0115  0.4765  0.0312
15978SOL    HW149128   2.814   0.684   1.459 -0.5688 -0.2004 -1.4740
15978SOL    HW249129   2.689   0.748   1.516 -0.6120 -0.8796 -0.8011
15979SOL     OW49130   0.795   1.986   2.947  0.4482 -0.4638  0.4430
15979SOL    HW149131   0.859   1.998   2.877  0.6482  2.7238  1.0301
15979SOL    HW249132   0.711   1.982   2.902  0.5094  2.1881 -0.0867
15980SOL     OW49133   3.258   2.810   1.367 -0.0981 -0.0674  0.5583
15980SOL    HW149134   3.233   2.801   1.459 -0.5802  0.2803  0.4705
15980SOL    HW249135   3.174   2.809   1.320  0.1191  0.1503  0.1634
15981SOL     OW49136   0.399   3.491   0.031  0.3186 -0.0309 -0.2573
15981SOL    HW149137   0.487   3.529   0.025  0.3082  0.0787  0.2647
15981SOL    HW249138   0.373   3.477  -0.060  0.5418  0.7073 -0.4368
15982SOL     OW49139   4.926   5.525   6.101  0.3175 -0.8640 -0.4569
15982SOL    HW149140   4.901   5.556   6.188 -2.3640 -0.6371 -1.2183
15982SOL    HW249141   4.980   5.595   6.064  0.5895 -0.5007  0.6061
15983SOL     OW49142   7.281   4.032   5.515 -0.7049 -0.6543  0.0055
15983SOL    HW149143   7.267   3.967   5.584 -2.7352 -1.1947 -0.8444
15983SOL    HW249144   7.314   4.109   5.562 -2.0940 -0.9713  1.6330
15984SOL     OW49145   0.925   5.703   2.197 -0.2407  0.1578  0.5641
15984SOL    HW149146   0.992   5.740   2.139  0.3245 -0.4946  0.7905
15984SOL    HW249147   0.973   5.643   2.254 -1.0190 -0.3057  0.7451
15985SOL     OW49148   6.539   1.857   0.821 -0.6076 -0.4171  0.5598
15985SOL    HW149149   6.466   1.808   0.784 -1.6274  0.2863  1.5630
15985SOL    HW249150   6.569   1.805   0.895 -1.7390  0.4653  1.6706
15986SOL     OW49151   2.243   8.411   8.236  1.0785  0.2695  0.6230
15986SOL    HW149152   2.178   8.394   8.168  2.1600 -0.4008 -0.2910
15986SOL    HW249153   2.288   8.491   8.206 -0.3416  1.6778  2.0751
15987SOL     OW49154   6.779   4.494   7.487 -0.2211 -0.0890  0.0335
15987SOL    HW149155   6.815   4.509   7.400  0.9499 -1.1602  0.3076
15987SOL    HW249156   6.808   4.570   7.538  0.0330 -0.0083 -0.2254
15988SOL     OW49157   6.564   2.028   4.420  0.1032 -0.0821 -0.1489
15988SOL    HW149158   6.518   1.966   4.363 -0.6713 -0.6182  1.0153
15988SOL    HW249159   6.593   2.098   4.361 -2.1109  0.2288 -0.9436
15989SOL     OW49160   4.477   3.370   8.411 -0.0542  0.0609 -0.4266
15989SOL    HW149161   4.484   3.360   8.316  1.3505 -0.9025 -0.2612
15989SOL    HW249162   4.547   3.431   8.434  1.2100 -1.5432  0.2056
15990SOL     OW49163   6.953   2.888   4.838  0.9412  0.4714  0.3425
15990SOL    HW149164   6.928   2.864   4.927  2.6532 -1.4495  0.3643
15990SOL    HW249165   7.037   2.845   4.824  0.9475  1.1308 -2.0439
15991SOL     OW49166   1.405   4.804   8.226 -0.2888 -0.3620 -0.7887
15991SOL    HW149167   1.330   4.750   8.198  0.0543 -1.0296 -0.4510
15991SOL    HW249168   1.409   4.875   8.162 -2.5950  0.9897  0.4310
15992SOL     OW49169   0.547   3.611   7.615  0.0424  0.1253 -0.3128
15992SOL    HW149170   0.473   3.634   7.560 -0.5552 -0.3545  0.2791
15992SOL    HW249171   0.613   3.677   7.595 -0.5282  0.5419 -0.8611
15993SOL     OW49172   4.926   4.373   7.373  0.1017  0.8139  0.2618
15993SOL    HW149173   4.998   4.385   7.311  0.0835  0.6440  0.2071
15993SOL    HW249174   4.968   4.345   7.454  0.1221  1.0025  0.3156
15994SOL     OW49175   1.700   8.204   0.839 -0.2662 -0.2344 -0.0041
15994SOL    HW149176   1.611   8.232   0.859  0.4369  0.7219  2.0267
15994SOL    HW249177   1.695   8.172   0.749 -2.1951  1.7903 -0.7143
15995SOL     OW49178   0.359   3.220   0.494 -0.2132  0.0486 -0.7669
15995SOL    HW149179   0.298   3.161   0.449 -2.0391  0.8684  0.5205
15995SOL    HW249180   0.308   3.298   0.511  1.4797  1.1124 -0.3473
15996SOL     OW49181   0.499   8.303   0.695  0.1634 -0.0898 -0.2588
15996SOL    HW149182   0.460   8.306   0.782 -1.1538 -0.6663 -0.8073
15996SOL    HW249183   0.579   8.252   0.706  0.0927 -0.0218  0.6408
15997SOL     OW49184   7.958   0.819   1.966 -0.5068 -0.0151 -0.2792
15997SOL    HW149185   7.995   0.906   1.951 -0.7294  0.3763  1.2778
15997SOL    HW249186   7.879   0.816   1.912 -1.5976  1.5268  1.1565
15998SOL     OW49187   1.958   3.318   3.339 -0.1000  0.1310 -0.0118
15998SOL    HW149188   1.876   3.270   3.324  1.4918 -2.6082 -0.6364
15998SOL    HW249189   1.974   3.310   3.433 -0.5302  0.7249  0.1226
15999SOL     OW49190   6.335   1.764   6.346  0.2995  0.4188 -0.4157
15999SOL    HW149191   6.386   1.785   6.267 -0.6599  1.8829 -0.6754
15999SOL    HW249192   6.253   1.813   6.335 -0.6075 -0.8056  0.6380
16000SOL     OW49193   6.049   2.671   4.593  0.0194 -0.1309 -0.1692
16000SOL    HW149194   5.992   2.655   4.668  1.5532  0.8008  1.2476
16000SOL    HW249195   6.038   2.594   4.538 -0.9044 -0.9845  1.1480
16001SOL     OW49196   2.193   2.656   4.315  0.5318  0.1220  0.9704
16001SOL    HW149197   2.231   2.578   4.274  0.1731  0.0564  0.7634
16001SOL    HW249198   2.142   2.622   4.388  0.5499  0.1800  1.0100
16002SOL     OW49199   6.570   4.761   1.077  0.1448 -0.0788 -0.8500
16002SOL    HW149200   6.653   4.800   1.105 -0.5954  0.8592  0.1251
16002SOL    HW249201   6.579   4.668   1.098  1.3478 -0.2020 -1.7787
16003SOL     OW49202   3.557   5.540   3.766 -0.8527 -0.4068 -0.4694
16003SOL    HW149203   3.628   5.515   3.825 -1.0841  1.5689  0.7431
16003SOL    HW249204   3.598   5.545   3.680 -0.0503 -1.4205 -0.1705
16004SOL     OW49205   8.506   8.519   5.138  0.2083 -0.0897  0.4273
16004SOL    HW149206   8.569   8.591   5.148  1.2018 -0.7047 -1.0115
16004SOL    HW249207   8.547   8.445   5.182 -0.6658  0.1203  1.6218
16005SOL     OW49208   5.952   1.623   1.499 -0.1443 -0.4348  0.2864
16005SOL    HW149209   5.937   1.598   1.590 -0.2851  0.7347  0.6049
16005SOL    HW249210   5.882   1.579   1.451 -1.7812  1.1070  1.1263
16006SOL     OW49211   2.891   6.500   0.807  0.0050 -0.3696 -0.1617
16006SOL    HW149212   2.867   6.467   0.894 -1.7242 -0.1852 -0.5476
16006SOL    HW249213   2.843   6.582   0.798 -0.1716 -0.6026 -1.4662
16007SOL     OW49214   0.973   3.941   6.376 -0.3341 -0.4514  0.1186
16007SOL    HW149215   1.008   4.029   6.385  1.1335 -1.0918  1.2597
16007SOL    HW249216   0.975   3.923   6.282  2.0207 -0.2426  0.0677
16008SOL     OW49217   4.485   6.426   8.506  0.1725 -0.2311  0.3500
16008SOL    HW149218   4.426   6.351   8.511 -1.5986  1.1296  1.1512
16008SOL    HW249219   4.519   6.436   8.595 -0.4050  0.5052  0.4976
16009SOL     OW49220   5.716   3.124   1.104 -0.6348 -0.1368 -0.5436
16009SOL    HW149221   5.689   3.039   1.070  0.9826 -0.5631 -0.8427
16009SOL    HW249222   5.636   3.177   1.102 -1.1981 -0.9619 -2.4612
16010SOL     OW49223   6.877   3.683   5.557 -0.0099 -0.0963 -0.3388
16010SOL    HW149224   6.805   3.627   5.528 -1.6871  1.0494  1.3308
16010SOL    HW249225   6.853   3.707   5.647  1.7136  1.5640 -0.2590
16011SOL     OW49226   5.968   5.965   0.071  0.2451  0.2479  0.2534
16011SOL    HW149227   5.946   5.938  -0.018 -0.1682  1.7583 -0.1177
16011SOL    HW249228   6.041   6.026   0.060  1.6953 -1.2074  1.1425
16012SOL     OW49229   5.403   4.900   3.049 -0.2865 -0.4613  0.3756
16012SOL    HW149230   5.312   4.908   3.079  0.1932 -0.6299  1.9749
16012SOL    HW249231   5.446   4.979   3.082  0.1474 -0.3754 -0.3883
16013SOL     OW49232   1.038   0.926   5.102  0.3364 -0.0731 -0.0005
16013SOL    HW149233   1.110   0.955   5.047 -1.0174  2.2054 -0.6943
16013SOL    HW249234   1.013   1.004   5.152 -2.0405 -0.5954 -0.2684
16014SOL     OW49235   2.195   4.792   7.892  0.2437 -0.1503 -0.1749
16014SOL    HW149236   2.116   4.748   7.925 -0.4016  0.5306 -0.7555
16014SOL    HW249237   2.257   4.722   7.875  0.1095 -0.6229  1.1895
16015SOL     OW49238   0.052   2.201   2.416  0.4557  0.3532 -0.2264
16015SOL    HW149239   0.056   2.289   2.453  0.4872  0.4281 -0.4045
16015SOL    HW249240   0.023   2.215   2.325 -0.5076  0.1025  0.0342
16016SOL     OW49241   7.482   4.630   6.468  0.5076 -0.0406  1.0361
16016SOL    HW149242   7.529   4.713   6.463  0.2861  0.0020 -1.2624
16016SOL    HW249243   7.485   4.607   6.561  1.2274  2.1398  1.6234
16017SOL     OW49244   8.429   4.920   8.219  0.4533  0.8067 -0.2261
16017SOL    HW149245   8.341   4.940   8.189 -0.4576  0.5130  2.0770
16017SOL    HW249246   8.466   4.864   8.151 -1.7992 -0.5734 -0.3922
16018SOL     OW49247   4.368   3.596   3.379 -0.0852  0.3430  0.0554
16018SOL    HW149248   4.363   3.689   3.356  1.4180  0.7024  1.0448
16018SOL    HW249249   4.449   3.588   3.430 -0.8459 -1.2642  1.1036
16019SOL     OW49250   5.021   3.486   2.509  0.2351 -0.2301  0.2952
16019SOL    HW149251   5.011   3.429   2.432 -1.9662  2.3801 -1.5453
16019SOL    HW249252   4.967   3.445   2.576  2.8435 -3.0106  0.9050
16020SOL     OW49253   1.808   8.152   1.091 -0.1050  0.3474 -0.2227
16020SOL    HW149254   1.772   8.179   1.006  1.2546  3.7447  0.1063
16020SOL    HW249255   1.902   8.173   1.084  0.6493 -2.2047  1.1203
16021SOL     OW49256   7.623   1.870   5.182 -0.0613 -0.0752  0.2795
16021SOL    HW149257   7.653   1.961   5.191 -0.5586  0.2565 -1.1475
16021SOL    HW249258   7.563   1.857   5.256  1.8426 -0.0664  1.9298
16022SOL     OW49259   3.165   5.718   6.861 -0.3127  0.0028 -0.2235
16022SOL    HW149260   3.125   5.793   6.818  0.9547  0.4987 -0.5865
16022SOL    HW249261   3.258   5.726   6.841 -0.1092 -1.4717  0.0317
16023SOL     OW49262   5.199   0.789   5.210 -0.1613  0.1441 -0.2000
16023SOL    HW149263   5.179   0.712   5.264  0.4270  0.3014  0.2499
16023SOL    HW249264   5.143   0.780   5.133  0.5516 -1.2026 -0.5802
16024SOL     OW49265   4.869   2.371   0.763 -0.3054  0.5059  0.3418
16024SOL    HW149266   4.944   2.313   0.757 -1.0120 -0.3766 -0.1735
16024SOL    HW249267   4.883   2.421   0.844 -0.4625 -1.4856  1.6500
16025SOL     OW49268   5.845   1.347   8.544  0.5954 -0.2289  0.2696
16025SOL    HW149269   5.827   1.417   8.607 -0.7734  1.2207 -1.6287
16025SOL    HW249270   5.764   1.340   8.492  0.6182 -3.3705  0.4819
16026SOL     OW49271   5.927   5.573   7.325  0.2780  0.1096 -0.2665
16026SOL    HW149272   5.986   5.606   7.257 -0.8418  1.7762 -0.4935
16026SOL    HW249273   5.901   5.486   7.294  2.2466 -0.4811 -0.3597
16027SOL     OW49274   6.898   0.271   3.686  0.1521 -0.0072 -0.5343
16027SOL    HW149275   6.899   0.184   3.646  2.7396 -1.3847  2.0999
16027SOL    HW249276   6.818   0.272   3.739 -0.1706 -0.5498 -1.0042
16028SOL     OW49277   7.915   7.899   0.862  0.2188 -0.1525  0.0663
16028SOL    HW149278   7.948   7.856   0.783 -2.2035 -2.1034  0.0158
16028SOL    HW249279   7.822   7.915   0.843  0.6351  4.0018  0.6350
16029SOL     OW49280   2.028   3.016   8.017  0.5191 -0.0454  0.1315
16029SOL    HW149281   1.937   2.997   7.994  1.0092 -1.7910 -0.5242
16029SOL    HW249282   2.080   2.958   7.962  2.0597  1.0561  0.3472
16030SOL     OW49283   4.340   2.851   2.175 -0.2353  0.6648 -0.1009
16030SOL    HW149284   4.399   2.827   2.103 -0.4938 -0.2983 -0.0117
16030SOL    HW249285   4.260   2.881   2.131 -0.6714 -0.6309 -0.2464
16031SOL     OW49286   0.237   4.162   1.697 -0.1415 -0.2523 -0.1046
16031SOL    HW149287   0.308   4.098   1.706 -0.4990 -0.5876  0.4156
16031SOL    HW249288   0.161   4.119   1.736 -0.0678  0.9986  1.5567
16032SOL     OW49289   7.775   4.215   4.363  0.1450  0.2265  0.5699
16032SOL    HW149290   7.684   4.223   4.335 -0.6796 -1.8349  2.4081
16032SOL    HW249291   7.793   4.296   4.412 -0.7895  0.5054  0.4601
16033SOL     OW49292   6.786   5.099   1.361  0.1993 -0.3016 -0.5301
16033SOL    HW149293   6.691   5.108   1.348  0.1655 -1.2906 -1.0688
16033SOL    HW249294   6.806   5.157   1.434 -0.5217  1.3827 -1.5918
16034SOL     OW49295   3.844   5.790   1.379  0.1398  0.0750 -0.3082
16034SOL    HW149296   3.759   5.834   1.389  0.2981  0.1395  0.9055
16034SOL    HW249297   3.878   5.784   1.468  0.0548 -2.6351 -0.3820
16035SOL     OW49298   2.502   3.534   8.336  0.2020  0.2762 -0.0552
16035SOL    HW149299   2.483   3.467   8.270 -0.6740  1.2486 -0.8323
16035SOL    HW249300   2.597   3.543   8.335  0.1546  0.9601 -1.9265
16036SOL     OW49301   0.498   8.103   7.418 -0.0534  0.2552 -0.9857
16036SOL    HW149302   0.461   8.019   7.391  1.9461 -0.4665 -1.6557
16036SOL    HW249303   0.434   8.168   7.388 -1.4453 -0.9791 -0.8197
16037SOL     OW49304   5.924   0.986   7.098  0.3435 -0.1818  0.2923
16037SOL    HW149305   5.889   1.005   7.011 -0.9946 -1.0559  0.6105
16037SOL    HW249306   5.941   0.892   7.096  1.4894  0.0083  0.5853
16038SOL     OW49307   5.423   7.678   6.805  0.0035  0.0450  0.3999
16038SOL    HW149308   5.442   7.636   6.722  1.1663  0.6507  0.3375
16038SOL    HW249309   5.504   7.669   6.856 -0.4210  0.3760  1.1618
16039SOL     OW49310   0.563   6.164   7.726  0.0673  0.4271  0.1432
16039SOL    HW149311   0.505   6.232   7.760 -0.2433  0.3570 -0.2447
16039SOL    HW249312   0.620   6.143   7.800 -1.2702 -0.4811  0.9609
16040SOL     OW49313   8.595   5.443   7.749  0.0917  0.5361 -0.0493
16040SOL    HW149314   8.683   5.465   7.782  0.2916 -0.0910 -0.1512
16040SOL    HW249315   8.609   5.368   7.691 -0.4359  0.8127 -0.5465
16041SOL     OW49316   0.369   4.945   2.336  0.2728 -0.1301  0.6903
16041SOL    HW149317   0.463   4.939   2.320  0.3719  2.1152 -0.0017
16041SOL    HW249318   0.361   5.011   2.405 -0.8081  0.1366  0.3342
16042SOL     OW49319   0.501   7.699   3.153  0.0030  0.0649  0.3843
16042SOL    HW149320   0.483   7.791   3.133 -1.3144 -0.2140  0.1961
16042SOL    HW249321   0.595   7.697   3.173  0.2455  1.2855 -0.4811
16043SOL     OW49322   2.383   5.043   2.187  0.2219 -0.5360  0.2003
16043SOL    HW149323   2.329   4.984   2.240 -0.4498  0.3249  0.4955
16043SOL    HW249324   2.472   5.007   2.195  0.1378 -0.4775  1.8778
16044SOL     OW49325   6.158   6.828   5.614 -0.2686 -0.5206 -0.3321
16044SOL    HW149326   6.110   6.753   5.579 -0.0649 -0.5462 -0.5628
16044SOL    HW249327   6.231   6.789   5.663  0.1074 -0.4717 -0.8407
16045SOL     OW49328   5.243   4.762   0.694 -0.1529  0.2010 -0.1427
16045SOL    HW149329   5.295   4.761   0.775  0.1845 -0.7170 -0.3608
16045SOL    HW249330   5.177   4.694   0.707 -0.3616  0.3342 -0.4800
16046SOL     OW49331   1.210   0.196   4.940 -0.0195  0.3701  0.2322
16046SOL    HW149332   1.253   0.251   5.005 -0.1496  0.1065  0.5430
16046SOL    HW249333   1.222   0.106   4.972 -1.5111  0.3302  0.7597
16047SOL     OW49334   1.751   2.468   4.509 -0.0189 -0.0613  0.3002
16047SOL    HW149335   1.765   2.526   4.434 -0.8957 -0.5403 -0.2497
16047SOL    HW249336   1.729   2.383   4.469 -1.8759  0.0080  1.0820
16048SOL     OW49337   2.057   1.389   4.210  0.3850  0.0287 -0.0964
16048SOL    HW149338   2.057   1.413   4.117 -0.5071  0.5956  0.0348
16048SOL    HW249339   2.138   1.340   4.222 -0.0147 -1.0237 -1.4255
16049SOL     OW49340   2.341   8.428   7.642  0.4971  0.7258 -0.0631
16049SOL    HW149341   2.332   8.379   7.724  1.0330  0.4349 -0.1754
16049SOL    HW249342   2.284   8.381   7.580  0.7977  0.3988 -0.0968
16050SOL     OW49343   2.903   6.249   0.270  0.0425  0.2052  0.0607
16050SOL    HW149344   2.844   6.322   0.291 -0.1292 -0.2069  1.0617
16050SOL    HW249345   2.977   6.261   0.330  0.9550  0.6582 -1.1115
16051SOL     OW49346   8.192   8.400   5.650 -0.6956 -0.4569  0.3951
16051SOL    HW149347   8.105   8.435   5.630 -0.1915  0.5889 -0.0670
16051SOL    HW249348   8.187   8.308   5.626 -1.3365 -0.1435 -0.7368
16052SOL     OW49349   6.041   1.794   1.805  0.5475 -0.4367  0.6667
16052SOL    HW149350   6.108   1.857   1.777  0.1806  0.1743  1.1327
16052SOL    HW249351   6.086   1.737   1.867  1.1460 -1.2792 -0.5012
16053SOL     OW49352   5.898   1.597   5.333 -0.3180 -0.4634 -0.2836
16053SOL    HW149353   5.968   1.617   5.271 -0.2504  1.7025  0.3967
16053SOL    HW249354   5.924   1.514   5.373  0.8606 -0.6699 -1.4175
16054SOL     OW49355   4.355   0.876   0.679  0.0373 -0.3252 -0.1244
16054SOL    HW149356   4.313   0.962   0.670  0.7652 -0.0095 -0.6020
16054SOL    HW249357   4.425   0.890   0.741 -0.2036 -0.7196  0.2425
16055SOL     OW49358   5.444   1.884   8.106  0.5119  0.4679  0.4669
16055SOL    HW149359   5.446   1.961   8.163  0.4308  0.1591  0.9026
16055SOL    HW249360   5.351   1.873   8.084  0.2726 -0.4581  1.7722
16056SOL     OW49361   1.427   8.564   1.989  0.1901 -0.2716  0.1297
16056SOL    HW149362   1.466   8.533   2.071  2.2231 -0.8762 -1.0069
16056SOL    HW249363   1.346   8.513   1.981 -0.2738  0.0800  1.9123
16057SOL     OW49364   4.802   4.613   2.109 -0.0050  0.3918 -0.5033
16057SOL    HW149365   4.746   4.561   2.051  0.4170  0.5381 -1.0575
16057SOL    HW249366   4.761   4.700   2.111 -0.1973  0.2963 -0.3263
16058SOL     OW49367   3.957   2.790   8.068  0.1935 -0.3005  0.0748
16058SOL    HW149368   4.033   2.761   8.119  0.2453 -0.8700 -0.3135
16058SOL    HW249369   3.995   2.824   7.987  0.0147 -0.9594 -0.2893
16059SOL     OW49370   5.274   2.407   7.637  0.4665  0.6547  0.2234
16059SOL    HW149371   5.262   2.312   7.639  2.2033  0.4067  1.6374
16059SOL    HW249372   5.365   2.420   7.665 -0.0200  2.7697  0.9960
16060SOL     OW49373   0.364   2.881   4.330  0.0725  0.0167 -0.1201
16060SOL    HW149374   0.361   2.874   4.234 -2.7470  0.1297 -0.1281
16060SOL    HW249375   0.340   2.793   4.361  0.6515  0.0686  0.4859
16061SOL     OW49376   4.483   7.764   6.673 -0.0376 -0.2939 -0.2012
16061SOL    HW149377   4.579   7.754   6.674  0.0069  0.1882  0.2481
16061SOL    HW249378   4.468   7.853   6.642 -0.3023  0.1130  1.0590
16062SOL     OW49379   3.959   5.241   6.891  0.5272 -0.0803  0.3389
16062SOL    HW149380   3.892   5.180   6.861 -0.8832  1.2586  0.6100
16062SOL    HW249381   4.000   5.197   6.965  0.1323 -1.0458  0.0042
16063SOL     OW49382   3.499   2.080   2.556  0.8207 -0.4706  0.2426
16063SOL    HW149383   3.488   2.174   2.544  0.1086 -0.3509  1.5759
16063SOL    HW249384   3.591   2.068   2.576  1.1082 -0.1859 -0.8492
16064SOL     OW49385   2.654   0.438   7.572 -0.2315 -0.6169 -0.9185
16064SOL    HW149386   2.731   0.450   7.516 -0.6594  0.2573 -1.3352
16064SOL    HW249387   2.690   0.422   7.659  0.4556  1.5659 -0.7379
16065SOL     OW49388   2.668   3.709   3.644  0.2289 -0.5441 -0.0350
16065SOL    HW149389   2.639   3.634   3.593 -0.3584 -0.4285  0.1283
16065SOL    HW249390   2.690   3.672   3.730  1.5132 -0.7901 -0.4414
16066SOL     OW49391   2.698   8.036   5.370 -0.0526  0.4817  0.1724
16066SOL    HW149392   2.696   8.070   5.460 -1.6737 -1.0952  0.7922
16066SOL    HW249393   2.718   8.112   5.316  0.3955  1.5866  1.8208
16067SOL     OW49394   4.211   1.873   7.377 -0.1961  0.0890  0.0919
16067SOL    HW149395   4.249   1.912   7.456  0.1196  0.3891 -0.2032
16067SOL    HW249396   4.183   1.947   7.324  1.4365 -0.0083 -0.9843
16068SOL     OW49397   2.049   4.360   8.402 -0.2236  0.3659 -0.0786
16068SOL    HW149398   2.093   4.393   8.323 -0.6264  2.2482  0.4572
16068SOL    HW249399   2.116   4.305   8.444  0.7569  1.1376 -0.5716
16069SOL     OW49400   3.969   2.994   6.079  0.2405 -0.2709  0.2201
16069SOL    HW149401   3.925   2.909   6.078  2.2060 -1.3406 -1.1522
16069SOL    HW249402   4.029   2.991   6.005  2.3190  1.2606  1.7155
16070SOL     OW49403   8.558   4.874   1.109  0.2745  0.3091  0.0959
16070SOL    HW149404   8.647   4.860   1.140  0.3204 -0.2591 -0.2768
16070SOL    HW249405   8.503   4.825   1.170  0.4159 -1.3615 -1.0524
16071SOL     OW49406   3.632   8.069   3.220 -0.7072  0.4478 -0.1357
16071SOL    HW149407   3.603   8.078   3.311 -1.0581  0.1529 -0.2160
16071SOL    HW249408   3.635   7.975   3.205 -0.6682  0.4962 -0.4329
16072SOL     OW49409   1.079   3.097   3.298  0.1826  0.4436  0.2394
16072SOL    HW149410   1.156   3.152   3.285 -1.9330  3.4833 -0.6393
16072SOL    HW249411   1.060   3.104   3.391 -0.7298  2.3781 -0.0258
16073SOL     OW49412   2.748   6.185   5.681 -0.1775  0.1280  0.2072
16073SOL    HW149413   2.780   6.193   5.591  0.1175  0.3199  0.3300
16073SOL    HW249414   2.671   6.242   5.685  0.1529  0.5727  0.2411
16074SOL     OW49415   0.633   1.823   0.808  0.1337  0.7014 -0.6102
16074SOL    HW149416   0.688   1.901   0.817  0.9975  0.0465  0.0863
16074SOL    HW249417   0.654   1.789   0.720 -0.1716  1.1869 -0.8746
16075SOL     OW49418   2.749   7.829   2.089  0.0126 -0.9498  0.2271
16075SOL    HW149419   2.843   7.830   2.107 -0.0174 -0.3460  0.3889
16075SOL    HW249420   2.719   7.917   2.113 -0.1336 -0.2243 -2.2939
16076SOL     OW49421   3.726   3.363   0.619 -0.3932  0.0841  0.3998
16076SOL    HW149422   3.749   3.273   0.596  1.2509  0.8751 -1.2951
16076SOL    HW249423   3.654   3.385   0.560 -1.9245 -0.5755  1.9198
16077SOL     OW49424   5.037   4.009   5.056 -0.1904  0.0357  0.2010
16077SOL    HW149425   5.007   3.918   5.054 -1.0215  0.2766  0.8504
16077SOL    HW249426   5.073   4.025   4.969  2.6717 -1.7867  0.9067
16078SOL     OW49427   6.526   4.347   7.620  0.2628  0.2221  0.1615
16078SOL    HW149428   6.535   4.374   7.711 -1.3284  2.2712 -0.2128
16078SOL    HW249429   6.609   4.372   7.579  0.1475  1.3581  0.6008
16079SOL     OW49430   4.816   4.375   0.703  0.1056 -0.1217  0.2376
16079SOL    HW149431   4.871   4.381   0.625  0.8651  0.7017  0.8245
16079SOL    HW249432   4.857   4.433   0.767 -0.9929 -0.1005  0.9642
16080SOL     OW49433   6.959   0.987   3.634 -0.7301  0.4410 -0.8293
16080SOL    HW149434   7.010   1.003   3.714 -1.8869 -3.8363  1.0681
16080SOL    HW249435   6.874   1.026   3.652 -0.5838  0.6304 -0.5405
16081SOL     OW49436   1.230   1.070   7.624  0.3995  0.5780  0.7757
16081SOL    HW149437   1.237   1.040   7.534 -0.6832  0.5004  0.7084
16081SOL    HW249438   1.264   0.997   7.676 -0.9645 -0.2515  0.5389
16082SOL     OW49439   1.689   4.864   2.094 -0.5133 -0.9125 -0.6164
16082SOL    HW149440   1.720   4.949   2.063  1.8351 -0.4517  2.5588
16082SOL    HW249441   1.739   4.800   2.042 -0.1725 -0.3140 -1.0411
16083SOL     OW49442   7.999   1.340   2.082  0.3769 -0.3116 -0.2452
16083SOL    HW149443   8.077   1.307   2.037  1.2987 -3.0603  2.9899
16083SOL    HW249444   7.960   1.263   2.122 -2.8778  1.3075  0.0160
16084SOL     OW49445   1.801   3.140   5.360 -0.4289 -0.6284  0.0366
16084SOL    HW149446   1.749   3.199   5.305 -0.6697 -0.4867  0.4156
16084SOL    HW249447   1.864   3.101   5.299  1.4353  1.8780  0.1746
16085SOL     OW49448   0.438   4.380   3.492  0.3897  0.5343 -0.2879
16085SOL    HW149449   0.422   4.427   3.573  1.0212 -1.2793  0.9394
16085SOL    HW249450   0.529   4.399   3.470  0.2591  0.9129 -0.5189
16086SOL     OW49451   0.887   5.795   7.127  0.4103  0.1936 -0.3536
16086SOL    HW149452   0.976   5.792   7.161  0.3027 -0.1860 -0.0956
16086SOL    HW249453   0.833   5.820   7.202  0.1147 -1.1139 -0.1141
16087SOL     OW49454   7.258   0.439   8.208  0.3537  0.3222 -0.1579
16087SOL    HW149455   7.281   0.461   8.298 -0.6771  0.6737  0.0262
16087SOL    HW249456   7.277   0.346   8.200  1.6612  0.5553  0.0335
16088SOL     OW49457   8.448   4.013   4.850  0.1178 -0.1436 -0.7303
16088SOL    HW149458   8.435   4.007   4.755  0.1002  2.3164 -0.9371
16088SOL    HW249459   8.541   4.032   4.861 -0.0577  0.5125 -0.3173
16089SOL     OW49460   0.009   8.255   3.193  0.2699 -0.5927  0.9665
16089SOL    HW149461  -0.066   8.306   3.223 -0.1529 -0.2415 -0.6046
16089SOL    HW249462  -0.029   8.184   3.140  0.9940 -1.0306  1.0133
16090SOL     OW49463   5.223   4.206   6.634  0.0238 -0.2726 -0.0774
16090SOL    HW149464   5.195   4.115   6.624  0.7693 -0.4698 -0.4317
16090SOL    HW249465   5.273   4.224   6.555 -1.4662  0.9662 -0.7909
16091SOL     OW49466   6.446   2.392   5.336 -0.2063 -0.7122  0.3361
16091SOL    HW149467   6.361   2.423   5.366  0.8465  0.2870  2.5415
16091SOL    HW249468   6.499   2.471   5.329  0.7866 -1.3951 -0.1278
16092SOL     OW49469   0.157   6.539   8.488  0.0470  0.2685 -0.0646
16092SOL    HW149470   0.252   6.546   8.499  0.1558  0.3447 -0.9818
16092SOL    HW249471   0.138   6.446   8.497  0.1519  0.2988  0.5057
16093SOL     OW49472   5.180   7.474   6.861  0.2194 -0.8005  0.2262
16093SOL    HW149473   5.163   7.515   6.776  0.9788 -2.5673 -0.8163
16093SOL    HW249474   5.163   7.544   6.924  0.2621  0.7576 -1.3961
16094SOL     OW49475   7.876   7.430   8.227 -0.4015 -0.0666  0.3605
16094SOL    HW149476   7.930   7.361   8.267 -1.1068 -1.3780 -0.8600
16094SOL    HW249477   7.930   7.509   8.234  0.4190 -0.7105  1.8383
16095SOL     OW49478   1.444   3.010   4.172  0.2070  0.2262 -0.4141
16095SOL    HW149479   1.495   3.089   4.151  1.6887 -0.5046  0.2552
16095SOL    HW249480   1.500   2.962   4.234 -0.5410 -1.4829 -1.0120
16096SOL     OW49481   3.172   7.002   6.691  0.7634 -0.3237  0.1697
16096SOL    HW149482   3.104   7.069   6.691 -0.8724 -1.9030 -0.6850
16096SOL    HW249483   3.184   6.979   6.783  1.7076  1.4232  0.5291
16097SOL     OW49484   0.084   0.702   4.979 -0.0227 -0.6864 -0.2721
16097SOL    HW149485   0.093   0.692   4.884  0.4399 -0.3132 -0.2735
16097SOL    HW249486   0.036   0.624   5.007  1.0080 -1.4804 -0.6437
16098SOL     OW49487   2.875   2.406   6.877  0.1461 -0.3946  0.2683
16098SOL    HW149488   2.839   2.476   6.823  0.5539 -0.1670  0.2892
16098SOL    HW249489   2.798   2.366   6.917 -0.5062 -2.5039 -2.7326
16099SOL     OW49490   2.482   0.311   6.592  0.4035  0.0497  0.1252
16099SOL    HW149491   2.464   0.367   6.517 -0.1475 -0.2827 -0.0039
16099SOL    HW249492   2.409   0.327   6.652  0.1882 -0.5827  0.0454
16100SOL     OW49493   3.014   7.222   8.091  0.2149 -0.0891  0.2714
16100SOL    HW149494   3.032   7.313   8.114 -1.4498  0.1820  0.6582
16100SOL    HW249495   3.093   7.174   8.117  1.5060  1.3508 -0.8084
16101SOL     OW49496   6.943   1.797   7.752 -0.2457 -0.1367  0.5098
16101SOL    HW149497   6.972   1.862   7.816 -0.6821 -0.1368  0.7145
16101SOL    HW249498   7.023   1.770   7.707 -0.0838  0.6929  0.2806
16102SOL     OW49499   0.038   0.042   3.256 -0.4126  0.6278 -0.1893
16102SOL    HW149500   0.079   0.040   3.170  1.2541 -1.3457  0.5642
16102SOL    HW249501  -0.003  -0.043   3.265 -1.2454  1.1013  0.6701
16103SOL     OW49502   3.071   4.233   2.635  0.3565 -0.5897 -0.0270
16103SOL    HW149503   3.053   4.256   2.544 -0.2829 -0.2961  0.1650
16103SOL    HW249504   3.143   4.170   2.630  3.2047  2.4365 -0.5004
16104SOL     OW49505   5.763   8.150   4.812 -0.7927 -0.2504  0.2608
16104SOL    HW149506   5.745   8.110   4.897 -3.2429 -1.0668 -0.5707
16104SOL    HW249507   5.703   8.225   4.808 -0.6841 -0.2083 -0.7347
16105SOL     OW49508   5.646   6.729   8.201  0.1157  0.1559 -0.3524
16105SOL    HW149509   5.605   6.685   8.127 -0.6157 -1.8258  1.1328
16105SOL    HW249510   5.574   6.748   8.261  0.5073  2.9532 -0.6654
16106SOL     OW49511   4.416   2.455   6.484 -0.0125  0.1151  0.3783
16106SOL    HW149512   4.456   2.475   6.400  0.0919 -0.0733  0.3828
16106SOL    HW249513   4.322   2.454   6.467 -0.0574  1.2729  0.5175
16107SOL     OW49514   4.701   4.207   2.213 -0.1903  0.3364 -0.3146
16107SOL    HW149515   4.751   4.286   2.236  0.4065 -0.2681  0.5157
16107SOL    HW249516   4.688   4.162   2.296  1.0709 -1.3670 -1.0005
16108SOL     OW49517   8.023   7.264   8.424  0.1199 -0.2141  0.5659
16108SOL    HW149518   8.084   7.334   8.448 -1.1222  0.6385  1.3879
16108SOL    HW249519   8.078   7.197   8.385  1.5089  0.7445  0.7793
16109SOL     OW49520   8.585   7.833   8.482  0.1411 -0.1648  0.1412
16109SOL    HW149521   8.578   7.740   8.462  3.6594 -0.5183 -0.0707
16109SOL    HW249522   8.520   7.875   8.425 -1.2414 -2.4156 -0.0554
16110SOL     OW49523   4.486   6.285   2.314  0.0047  0.1374 -0.3588
16110SOL    HW149524   4.576   6.289   2.344 -0.5407  0.1612  1.3996
16110SOL    HW249525   4.466   6.374   2.285 -0.0676  0.7028  1.2901
16111SOL     OW49526   6.601   3.217   6.126 -0.4132  0.3580 -0.0644
16111SOL    HW149527   6.628   3.285   6.064  0.4796  2.0393  2.0273
16111SOL    HW249528   6.680   3.199   6.177 -1.2901 -0.4643  1.0535
16112SOL     OW49529   4.145   3.051   8.204 -0.1147  0.2774 -0.6306
16112SOL    HW149530   4.158   2.961   8.173  0.7727  0.3267 -0.4373
16112SOL    HW249531   4.099   3.041   8.288  1.1935 -0.0873  0.0739
16113SOL     OW49532   4.566   2.469   6.255  0.5985  0.3386 -0.8172
16113SOL    HW149533   4.652   2.466   6.296  0.4719  0.3147 -0.5543
16113SOL    HW249534   4.565   2.552   6.207  1.0095  0.0388 -1.3566
16114SOL     OW49535   7.180   2.382   1.059 -0.4674 -0.5594 -0.3664
16114SOL    HW149536   7.168   2.470   1.095  1.1142 -0.1299 -0.7864
16114SOL    HW249537   7.137   2.386   0.973 -0.7384 -0.3085 -0.2206
16115SOL     OW49538   8.450   6.789   3.783  0.1459 -0.6553  0.2229
16115SOL    HW149539   8.398   6.756   3.710  0.7067 -0.4503 -0.2751
16115SOL    HW249540   8.404   6.757   3.861  0.7930 -2.8796 -0.2212
16116SOL     OW49541   3.325   7.813   2.767 -0.1452 -0.5008 -0.3089
16116SOL    HW149542   3.375   7.742   2.727 -1.0711 -0.6459 -1.2428
16116SOL    HW249543   3.274   7.771   2.836  0.2114 -0.5173 -0.0453
16117SOL     OW49544   4.852   5.866   5.462  0.1159 -0.1618  0.0997
16117SOL    HW149545   4.757   5.870   5.445  0.4715  1.2282 -1.8112
16117SOL    HW249546   4.871   5.772   5.463 -0.7672 -0.5084 -3.1348
16118SOL     OW49547   4.630   7.146   8.208  0.1229 -0.2611  0.1961
16118SOL    HW149548   4.634   7.242   8.207  1.7581 -0.2843 -1.2488
16118SOL    HW249549   4.717   7.119   8.238 -0.2595 -1.3000  0.3978
16119SOL     OW49550   1.408   5.778   5.589  0.4868 -0.2230  0.2107
16119SOL    HW149551   1.468   5.719   5.635  2.0299 -0.4517 -1.9719
16119SOL    HW249552   1.401   5.741   5.501 -0.9409  1.1843 -0.2964
16120SOL     OW49553   1.742   7.067   3.082 -0.0180  0.2022  0.0887
16120SOL    HW149554   1.816   7.101   3.132  0.2980  0.3290 -0.4544
16120SOL    HW249555   1.783   7.016   3.011 -0.4529 -2.3766  1.5766
16121SOL     OW49556   4.786   3.203   3.901  0.5281  0.4864 -0.4932
16121SOL    HW149557   4.747   3.130   3.853  0.7577  0.6419 -0.9143
16121SOL    HW249558   4.880   3.197   3.883  0.7207  0.0718  0.5744
16122SOL     OW49559   3.123   0.838   0.948 -0.0647 -0.0862 -0.2334
16122SOL    HW149560   3.152   0.928   0.932 -1.2611  0.2850 -0.4695
16122SOL    HW249561   3.060   0.821   0.878 -1.1542 -0.4686  0.8001
16123SOL     OW49562   8.172   4.949   8.125 -0.0002  0.2263  0.9548
16123SOL    HW149563   8.178   5.044   8.133 -0.9554  0.5406 -1.3130
16123SOL    HW249564   8.081   4.928   8.146  0.1341 -0.1594  1.1657
16124SOL     OW49565   3.267   0.134   3.128  0.3433 -0.1886 -0.1731
16124SOL    HW149566   3.328   0.126   3.201 -0.1104 -1.1461  0.1216
16124SOL    HW249567   3.270   0.227   3.104 -0.2621  0.3670  1.7366
16125SOL     OW49568   1.457   0.396   7.173  0.3961  0.0513 -0.0592
16125SOL    HW149569   1.414   0.466   7.223  0.1686 -0.0793 -0.0672
16125SOL    HW249570   1.398   0.321   7.183 -0.5222  0.4591 -1.8747
16126SOL     OW49571   4.443   0.820   3.173  0.1711 -0.2694 -0.2193
16126SOL    HW149572   4.454   0.882   3.245  1.4724 -0.0005 -0.6241
16126SOL    HW249573   4.480   0.738   3.206  0.8871 -0.1111 -0.6211
16127SOL     OW49574   7.239   7.539   2.867 -0.2316 -0.1641 -0.0354
16127SOL    HW149575   7.275   7.453   2.891  0.7711  0.5157  1.0150
16127SOL    HW249576   7.154   7.542   2.910  0.4841  0.0373  1.4300
16128SOL     OW49577   2.079   3.454   3.782  0.4922  0.2086  0.1831
16128SOL    HW149578   2.002   3.459   3.838  2.5635  1.5663  3.1653
16128SOL    HW249579   2.109   3.545   3.774  3.4468 -0.5235  1.7356
16129SOL     OW49580   1.392   5.099   1.784 -0.5296 -0.1357 -0.2273
16129SOL    HW149581   1.427   5.010   1.780 -1.7485 -0.6446 -0.0844
16129SOL    HW249582   1.368   5.119   1.693 -2.1862 -0.7913  0.0267
16130SOL     OW49583   0.978   3.455   4.398 -0.2723  0.5060  0.6210
16130SOL    HW149584   0.899   3.434   4.347  0.1372  0.0304  0.1680
16130SOL    HW249585   0.957   3.537   4.441 -1.3244 -0.0263  1.1648
16131SOL     OW49586   7.825   7.705   0.252 -0.7012  0.5577 -0.9389
16131SOL    HW149587   7.845   7.798   0.244 -1.0315  0.8284  0.9468
16131SOL    HW249588   7.868   7.665   0.176  0.1569  2.1227 -1.3290
16132SOL     OW49589   0.786   5.021   7.130 -0.3384 -0.3965  0.2181
16132SOL    HW149590   0.861   4.961   7.128 -0.6243 -0.7482  0.0258
16132SOL    HW249591   0.794   5.072   7.049 -0.2910 -0.4080  0.2152
16133SOL     OW49592   5.673   5.791   0.243 -0.4733 -0.5889  0.7420
16133SOL    HW149593   5.587   5.770   0.280  0.2811 -2.5887  1.4588
16133SOL    HW249594   5.665   5.770   0.150 -1.2871  1.0117  0.4206
16134SOL     OW49595   3.394   6.204   1.789 -0.1199  0.4669 -0.2061
16134SOL    HW149596   3.385   6.209   1.693 -0.3681  0.8026 -0.1706
16134SOL    HW249597   3.327   6.142   1.816  1.2012 -1.1175 -0.4123
16135SOL     OW49598   5.813   5.892   1.870 -0.9023 -0.7594  0.0050
16135SOL    HW149599   5.890   5.842   1.841 -0.9561 -0.9069  0.1133
16135SOL    HW249600   5.794   5.952   1.798 -0.3514 -0.3382  0.2097
16136SOL     OW49601   4.817   7.708   6.639  0.2504 -0.0508  0.0038
16136SOL    HW149602   4.908   7.692   6.663  0.4155  0.9615  0.0534
16136SOL    HW249603   4.820   7.733   6.547 -0.2784 -2.8042 -0.8741
16137SOL     OW49604   0.362   7.523   5.231 -0.2237  0.0603  0.3449
16137SOL    HW149605   0.377   7.433   5.201 -0.2914  1.1001 -3.2449
16137SOL    HW249606   0.451   7.558   5.243 -0.1802 -0.0802  0.4447
16138SOL     OW49607   7.847   6.291   1.223 -0.2091  0.1379 -0.4394
16138SOL    HW149608   7.853   6.201   1.191  0.6186 -0.4228  1.1666
16138SOL    HW249609   7.883   6.344   1.152  2.5505 -1.1432 -0.1477
16139SOL     OW49610   7.358   1.302   0.096  0.0125 -0.0036 -0.2996
16139SOL    HW149611   7.402   1.385   0.075  0.7564 -0.0839  0.8859
16139SOL    HW249612   7.382   1.244   0.024 -0.5071  0.7854 -1.1441
16140SOL     OW49613   8.097   3.551   3.902  0.6638 -0.2287  0.4763
16140SOL    HW149614   8.178   3.586   3.865  0.8960 -0.6416  0.5931
16140SOL    HW249615   8.125   3.484   3.964  0.2507 -0.0199  0.8980
16141SOL     OW49616   0.037   5.070   5.022  0.0915 -0.2482 -0.3560
16141SOL    HW149617  -0.027   5.014   5.066 -0.3260  0.1235 -0.4864
16141SOL    HW249618   0.113   5.014   5.010  1.1558  0.2492  2.9553
16142SOL     OW49619   0.740   8.491   6.060 -0.6307 -0.6318 -0.4324
16142SOL    HW149620   0.731   8.506   5.966  0.7410 -2.2055 -0.8755
16142SOL    HW249621   0.790   8.567   6.091  0.9285 -1.1774 -1.4523
16143SOL     OW49622   3.333   3.453   5.130 -0.1093  0.1726  0.1753
16143SOL    HW149623   3.403   3.461   5.065  0.1161 -2.0096  0.0762
16143SOL    HW249624   3.379   3.442   5.213 -0.1692 -3.0270 -0.0929
16144SOL     OW49625   4.513   1.729   1.271  0.1009 -0.3282  0.4628
16144SOL    HW149626   4.579   1.661   1.279  1.6556  1.1723  0.9194
16144SOL    HW249627   4.442   1.688   1.221  0.3228 -2.7176  1.9027
16145SOL     OW49628   3.391   1.769   6.367  0.6875 -0.6054  0.3382
16145SOL    HW149629   3.332   1.843   6.350 -0.6585 -1.6293  0.3579
16145SOL    HW249630   3.396   1.764   6.462 -1.1727 -1.9495  0.4292
16146SOL     OW49631   3.630   1.473   5.039 -0.6200 -0.1033  1.0711
16146SOL    HW149632   3.547   1.519   5.034  0.5938  2.1897  0.4156
16146SOL    HW249633   3.664   1.492   5.126 -0.5145 -0.5478  1.1315
16147SOL     OW49634   3.037   6.623   0.425  0.2978  0.1709 -0.2149
16147SOL    HW149635   3.110   6.592   0.371  0.0635  0.3087 -0.6187
16147SOL    HW249636   3.001   6.545   0.466 -1.0463 -0.3106 -2.1445
16148SOL     OW49637   7.499   4.405   0.243  0.6799  0.0932  0.0263
16148SOL    HW149638   7.575   4.390   0.299  0.0240  0.3167  1.0084
16148SOL    HW249639   7.431   4.436   0.303 -0.3347 -0.5503 -0.7517
16149SOL     OW49640   4.317   2.934   1.854 -0.0381  0.3196 -0.1073
16149SOL    HW149641   4.390   2.888   1.813 -0.0620 -0.5274  0.7690
16149SOL    HW249642   4.248   2.868   1.861  0.2925  0.1606  2.1312
16150SOL     OW49643   0.959   0.017   2.215 -0.3661  0.1739  0.4395
16150SOL    HW149644   1.046   0.045   2.244 -1.1475  2.5372  0.7219
16150SOL    HW249645   0.917  -0.020   2.293  1.1740 -3.4640 -0.2443
16151SOL     OW49646   5.713   1.176   8.032 -0.2535  0.8035 -0.5143
16151SOL    HW149647   5.692   1.268   8.049 -0.7404  0.6617 -0.3184
16151SOL    HW249648   5.754   1.145   8.112 -0.3888  0.7680 -0.4567
16152SOL     OW49649   8.196   6.470   2.809  0.1251  0.3834 -0.2198
16152SOL    HW149650   8.185   6.547   2.753  0.1097 -0.0305 -0.8005
16152SOL    HW249651   8.261   6.416   2.764  1.9344  1.1270  1.3759
16153SOL     OW49652   4.015   5.070   0.904  0.6280  0.5882 -0.9570
16153SOL    HW149653   4.042   4.981   0.881 -1.5053 -0.9301  1.7100
16153SOL    HW249654   4.072   5.094   0.977 -1.1023 -0.1956  0.7419
16154SOL     OW49655   2.292   0.863   1.974 -0.5955 -0.3831 -0.1196
16154SOL    HW149656   2.304   0.826   2.062  0.4097  0.5386  0.1496
16154SOL    HW249657   2.380   0.874   1.940 -0.6849  3.1178  0.4098
16155SOL     OW49658   5.075   7.567   5.886 -0.4157 -0.3363 -0.2103
16155SOL    HW149659   4.991   7.537   5.919 -0.7280  0.7511  0.0056
16155SOL    HW249660   5.139   7.506   5.924 -0.5917  1.5395  3.5681
16156SOL     OW49661   8.439   7.502   6.504 -0.2307  0.6243 -0.4883
16156SOL    HW149662   8.398   7.560   6.568 -0.8617  0.0823 -0.3851
16156SOL    HW249663   8.433   7.415   6.544  0.3290  0.4286 -0.8170
16157SOL     OW49664   7.993   0.243   1.922 -0.2577 -0.3084 -0.3115
16157SOL    HW149665   7.992   0.317   1.862 -1.1089 -0.0678 -0.0059
16157SOL    HW249666   7.925   0.184   1.889  1.5830 -1.8309 -1.6157
16158SOL     OW49667   5.192   4.601   5.945  0.4366  0.4269 -0.1424
16158SOL    HW149668   5.218   4.693   5.944  0.7845  0.3634  1.1701
16158SOL    HW249669   5.195   4.574   5.853  0.5915  1.6442 -0.5122
16159SOL     OW49670   2.277   2.546   3.677 -0.2364  0.0861 -0.8852
16159SOL    HW149671   2.228   2.464   3.673  0.8754 -0.6137 -0.4225
16159SOL    HW249672   2.269   2.582   3.589 -1.5735  0.0010 -0.8250
16160SOL     OW49673   0.432   2.911   6.835  0.2019 -0.3616 -0.0997
16160SOL    HW149674   0.481   2.875   6.909 -0.4255 -1.8993 -0.3895
16160SOL    HW249675   0.462   2.859   6.760  0.7639  1.1192 -0.9231
16161SOL     OW49676   7.112   7.938   4.528 -0.1591  0.7933 -0.1148
16161SOL    HW149677   7.129   7.944   4.434 -0.1690  0.6533 -0.1266
16161SOL    HW249678   7.020   7.912   4.534  0.3221 -1.0279 -0.1124
16162SOL     OW49679   3.517   3.193   2.642 -0.3675  0.5198  0.5016
16162SOL    HW149680   3.498   3.136   2.568  1.0378  0.6930 -0.0372
16162SOL    HW249681   3.438   3.246   2.653 -0.0789  1.6618 -1.9801
16163SOL     OW49682   2.876   1.801   8.402  0.0856 -0.2260 -0.0491
16163SOL    HW149683   2.816   1.871   8.377  1.0235  0.5804 -0.1165
16163SOL    HW249684   2.881   1.807   8.498 -2.7800 -2.7092  0.4017
16164SOL     OW49685   0.715   7.455   0.637 -0.7941 -0.3718 -0.3061
16164SOL    HW149686   0.775   7.442   0.563 -0.9611  0.7734 -0.6602
16164SOL    HW249687   0.701   7.549   0.640 -3.0434 -0.6594 -0.6089
16165SOL     OW49688   0.767   2.550   4.811 -0.0624  0.2244  0.1665
16165SOL    HW149689   0.795   2.487   4.744 -0.8577 -0.7643  0.7322
16165SOL    HW249690   0.780   2.635   4.770  0.1485 -0.3312 -0.9766
16166SOL     OW49691   6.408   5.007   5.510  0.0951  0.0517  0.3008
16166SOL    HW149692   6.446   4.939   5.565 -1.7011  0.3493  2.0244
16166SOL    HW249693   6.472   5.078   5.511 -0.3874  0.5835  3.2140
16167SOL     OW49694   3.192   6.016   5.288  0.3103 -0.0514 -0.2697
16167SOL    HW149695   3.179   5.922   5.302 -0.4694  0.2102  0.8756
16167SOL    HW249696   3.212   6.051   5.375 -0.4904  1.0086 -0.5012
16168SOL     OW49697   5.397   1.150   1.916 -0.3820 -0.4369 -0.2867
16168SOL    HW149698   5.410   1.143   1.822  0.2921 -0.9884 -0.1628
16168SOL    HW249699   5.442   1.074   1.952  0.7668  0.6357  0.6074
16169SOL     OW49700   5.144   0.395   6.143  0.6749  0.3825  0.3918
16169SOL    HW149701   5.176   0.344   6.218  3.2973 -0.0469 -0.9052
16169SOL    HW249702   5.049   0.393   6.152  0.8494  1.4907  4.4083
16170SOL     OW49703   6.003   6.678   1.345 -0.4603  0.5184 -0.0655
16170SOL    HW149704   5.942   6.629   1.290 -2.0434  0.6141  1.5083
16170SOL    HW249705   5.959   6.761   1.362  0.1827  0.6800  0.9358
16171SOL     OW49706   7.687   8.500   5.619  0.1529 -0.4490 -0.2841
16171SOL    HW149707   7.614   8.545   5.662  0.2574 -1.1734  0.6814
16171SOL    HW249708   7.668   8.508   5.526 -1.6991 -1.4730 -0.0345
16172SOL     OW49709   8.175   5.513   4.453 -0.3405 -0.6371  0.6617
16172SOL    HW149710   8.246   5.522   4.516  0.5671 -2.7493  0.0243
16172SOL    HW249711   8.213   5.540   4.370 -0.5016 -1.0309  0.4547
16173SOL     OW49712   5.693   4.671   6.252 -0.4192  0.0137 -0.1876
16173SOL    HW149713   5.783   4.705   6.255 -0.2911 -0.3277 -0.1598
16173SOL    HW249714   5.652   4.721   6.182  0.5421 -1.6316 -2.0098
16174SOL     OW49715   1.228   5.476   1.646  0.1725  0.0716 -0.4753
16174SOL    HW149716   1.301   5.461   1.586  0.5532 -0.5036  0.1126
16174SOL    HW249717   1.264   5.534   1.714  0.1012 -0.2517 -0.1584
16175SOL     OW49718   2.501   4.909   4.298  0.4342  0.3604 -0.4123
16175SOL    HW149719   2.416   4.910   4.253 -0.0314 -1.3764  0.3340
16175SOL    HW249720   2.558   4.961   4.242 -1.1117  1.5714 -0.9398
16176SOL     OW49721   8.260   1.778   7.184  0.5894  0.5295  0.3532
16176SOL    HW149722   8.346   1.743   7.161 -0.3348 -1.9792  0.3720
16176SOL    HW249723   8.267   1.798   7.277  1.3859  1.1057  0.1755
16177SOL     OW49724   8.193   5.206   8.115  0.0354  0.0796  0.8604
16177SOL    HW149725   8.170   5.294   8.143 -0.8012 -0.2201  1.1287
16177SOL    HW249726   8.203   5.212   8.020  1.0589  0.6936  0.9908
16178SOL     OW49727   5.172   2.549   1.224  0.8540 -0.5037  0.0717
16178SOL    HW149728   5.184   2.529   1.131 -1.6295 -0.6650 -0.2857
16178SOL    HW249729   5.166   2.644   1.228  1.0456 -0.4920  0.0826
16179SOL     OW49730   6.077   6.105   6.591  0.0309 -0.4392  0.2168
16179SOL    HW149731   6.116   6.168   6.531  1.2749  0.4517  1.8514
16179SOL    HW249732   6.069   6.153   6.674  1.2927 -2.4665  1.6066
16180SOL     OW49733   3.696   7.808   0.202  0.4245 -0.5939 -0.1841
16180SOL    HW149734   3.655   7.765   0.127 -1.4399  0.7633 -0.0135
16180SOL    HW249735   3.623   7.826   0.262  1.6943 -0.5535  1.4015
16181SOL     OW49736   7.705   1.961   2.397  0.2908  0.3181 -0.1325
16181SOL    HW149737   7.727   1.915   2.477 -2.7650 -0.6062  0.2792
16181SOL    HW249738   7.730   2.052   2.414  2.3969 -0.3448  0.6729
16182SOL     OW49739   8.320   7.371   7.218  0.6564 -0.1105 -0.5864
16182SOL    HW149740   8.304   7.287   7.263  0.8064  0.3722  0.3966
16182SOL    HW249741   8.244   7.424   7.240  2.0848  1.1611  1.6244
16183SOL     OW49742   2.790   2.039   3.329 -0.5716 -0.1424  0.2789
16183SOL    HW149743   2.695   2.031   3.325 -0.6762 -0.0346  1.8724
16183SOL    HW249744   2.806   2.122   3.372  0.2228 -0.6186  0.9427
16184SOL     OW49745   6.976   1.249   1.556  0.0191 -0.2758 -0.2261
16184SOL    HW149746   6.933   1.207   1.631  0.3012  0.8949  0.6099
16184SOL    HW249747   6.948   1.341   1.560 -0.0092 -0.1972 -1.6005
16185SOL     OW49748   6.796   5.863   8.303  0.1918 -0.5746 -0.7508
16185SOL    HW149749   6.730   5.795   8.289 -2.3387  1.0477  2.1627
16185SOL    HW249750   6.831   5.845   8.390 -0.3692  1.6257 -0.0084
16186SOL     OW49751   3.299   8.447   7.315 -0.0781  0.2315 -0.2658
16186SOL    HW149752   3.389   8.420   7.331 -0.6721 -1.3460  0.6940
16186SOL    HW249753   3.246   8.383   7.364 -1.7132  1.0495 -0.8947
16187SOL     OW49754   1.341   4.125   4.648 -0.3155  0.3654 -0.2058
16187SOL    HW149755   1.376   4.213   4.658  2.1342 -0.5970  0.3093
16187SOL    HW249756   1.364   4.080   4.729  0.2393 -1.2820 -1.2264
16188SOL     OW49757   0.500   2.157   0.675 -0.2089  0.2051 -0.1484
16188SOL    HW149758   0.476   2.066   0.656 -0.3294  0.3472 -0.7200
16188SOL    HW249759   0.535   2.189   0.592  0.3139  0.5263  0.1958
16189SOL     OW49760   2.428   7.990   5.145 -0.5995  0.2037  0.3487
16189SOL    HW149761   2.380   7.976   5.063 -0.7327 -1.4416  0.6857
16189SOL    HW249762   2.361   8.022   5.206 -0.5941  0.9858 -0.0438
16190SOL     OW49763   5.348   2.604   4.612  0.3731 -0.2319  0.0309
16190SOL    HW149764   5.374   2.617   4.521  1.3682  0.3053  0.3769
16190SOL    HW249765   5.332   2.509   4.619  0.7021 -0.3379 -0.5953
16191SOL     OW49766   7.443   6.473   3.295  0.4125 -0.0011 -0.2963
16191SOL    HW149767   7.498   6.406   3.255 -0.1416 -1.4450  1.2487
16191SOL    HW249768   7.433   6.540   3.227  1.0014 -1.4726 -1.8965
16192SOL     OW49769   4.925   2.700   0.081  0.1297  0.1932  0.8882
16192SOL    HW149770   4.868   2.774   0.097 -0.8991 -0.6433  1.1982
16192SOL    HW249771   4.987   2.700   0.154 -0.7011 -0.0152  1.6109
16193SOL     OW49772   0.382   7.002   4.540  0.1263 -0.1012  0.5273
16193SOL    HW149773   0.455   7.063   4.552 -0.9896  1.3535  0.2171
16193SOL    HW249774   0.417   6.934   4.482  1.8769 -0.6427  2.1010
16194SOL     OW49775   7.587   2.291   0.606  0.4258 -0.3047  0.6788
16194SOL    HW149776   7.577   2.376   0.563 -0.0543 -0.9877 -0.6059
16194SOL    HW249777   7.626   2.312   0.691  0.5371  1.1731  0.2938
16195SOL     OW49778   2.291   6.396   1.271 -0.0835 -0.1887  0.1676
16195SOL    HW149779   2.345   6.316   1.272 -1.9517 -1.5240 -0.3512
16195SOL    HW249780   2.214   6.372   1.220 -0.5677  2.0910 -0.2776
16196SOL     OW49781   2.260   3.180   7.355 -0.3027  0.4668  0.0744
16196SOL    HW149782   2.303   3.180   7.270  0.7721  1.8047  0.5855
16196SOL    HW249783   2.331   3.180   7.419 -1.0666 -2.2609  1.0590
16197SOL     OW49784   4.475   3.668   8.600 -0.1568 -0.6231  0.2067
16197SOL    HW149785   4.529   3.728   8.651 -0.8416  1.2350 -1.1415
16197SOL    HW249786   4.417   3.627   8.664 -0.8761  1.5070  1.0138
16198SOL     OW49787   6.041   1.039   2.072 -0.5224 -0.3681  0.3865
16198SOL    HW149788   6.062   1.073   2.159  0.8451 -0.9309  0.3072
16198SOL    HW249789   5.960   0.990   2.084 -1.0631  0.6596  1.0527
16199SOL     OW49790   1.229   1.569   7.248 -0.1144  0.0915 -0.4035
16199SOL    HW149791   1.164   1.504   7.221 -0.4063  0.4394 -0.5358
16199SOL    HW249792   1.297   1.563   7.180  0.3666 -0.7939  0.1260
16200SOL     OW49793   5.850   4.161   1.425 -0.3964 -0.5553  0.1334
16200SOL    HW149794   5.814   4.085   1.379 -0.4599 -0.2766 -0.2824
16200SOL    HW249795   5.802   4.165   1.507  0.2587 -1.5286  0.5887
16201SOL     OW49796   2.870   0.686   2.233 -0.5749  0.6022 -0.3285
16201SOL    HW149797   2.849   0.757   2.293  1.3780  1.5503 -0.7089
16201SOL    HW249798   2.838   0.607   2.278 -0.9536  1.4912  1.0179
16202SOL     OW49799   3.479   0.192   8.421 -0.0842 -0.4449 -0.1286
16202SOL    HW149800   3.428   0.271   8.405  0.8146  0.0038 -0.8480
16202SOL    HW249801   3.555   0.200   8.364  1.1301 -0.7891  1.3683
16203SOL     OW49802   6.504   3.552   7.969 -0.5191  0.0466 -0.1128
16203SOL    HW149803   6.429   3.594   7.926 -0.5970  1.1999  1.0894
16203SOL    HW249804   6.464   3.493   8.033 -0.4053 -0.0485 -0.1308
16204SOL     OW49805   1.558   6.878   5.796  0.1278  0.7927 -0.5722
16204SOL    HW149806   1.477   6.872   5.847 -0.2689 -0.6513 -1.2867
16204SOL    HW249807   1.620   6.923   5.853 -0.6995  0.4413  0.6391
16205SOL     OW49808   0.053   8.460   5.511  0.4731 -0.1869 -0.5853
16205SOL    HW149809   0.041   8.402   5.436  0.0591  1.0944 -1.5372
16205SOL    HW249810   0.138   8.500   5.497 -0.3899  1.4608 -1.4037
16206SOL     OW49811   0.114   8.095   7.279  0.1336 -0.2830 -0.4139
16206SOL    HW149812   0.137   8.004   7.260  0.9142  0.1128 -1.4691
16206SOL    HW249813   0.056   8.090   7.355 -1.4586 -1.8360 -1.6316
16207SOL     OW49814   7.583   2.672   0.744  0.5872  0.3847  0.1790
16207SOL    HW149815   7.576   2.622   0.662  3.4526  0.2078 -0.0655
16207SOL    HW249816   7.504   2.727   0.745 -1.0406 -1.7410 -1.1704
16208SOL     OW49817   1.989   2.724   6.842  0.2502 -0.0718 -0.0342
16208SOL    HW149818   1.914   2.736   6.901  0.2095 -0.7569  0.0569
16208SOL    HW249819   1.978   2.636   6.807 -0.2168  0.6396 -1.7662
16209SOL     OW49820   0.636   3.518   0.673  0.4408 -0.0323 -0.0343
16209SOL    HW149821   0.726   3.540   0.700 -0.3658 -0.5137  3.5137
16209SOL    HW249822   0.603   3.599   0.634  2.2772  0.2444 -1.1670
16210SOL     OW49823   5.820   3.850   1.301  0.1918 -0.3058 -0.5760
16210SOL    HW149824   5.805   3.808   1.386  1.5606 -0.1978 -0.2587
16210SOL    HW249825   5.912   3.831   1.280 -0.1039 -0.2927 -2.0169
16211SOL     OW49826   4.957   5.936   7.299 -0.4019  0.0865 -0.0233
16211SOL    HW149827   5.008   5.856   7.288 -1.0441 -0.1841 -1.0448
16211SOL    HW249828   4.950   5.947   7.394  2.3341  0.6374  0.1986
16212SOL     OW49829   1.863   1.844   1.398  0.0956 -0.3323 -0.5497
16212SOL    HW149830   1.790   1.888   1.442 -0.1401  0.7505 -1.9129
16212SOL    HW249831   1.823   1.771   1.351 -0.2959  0.6592 -1.8517
16213SOL     OW49832   8.140   7.666   4.445 -0.4334  0.5412 -0.4009
16213SOL    HW149833   8.062   7.699   4.490 -0.0785  0.8154  0.0167
16213SOL    HW249834   8.105   7.612   4.374 -1.0051  0.7190 -0.2631
16214SOL     OW49835   4.665   0.326   5.957  0.1840 -0.5042  0.3667
16214SOL    HW149836   4.570   0.326   5.967 -0.2124  1.9186 -1.9882
16214SOL    HW249837   4.679   0.311   5.863  2.0847 -0.2992  0.5754
16215SOL     OW49838   5.419   5.868   1.529 -0.4923 -0.2740 -0.0455
16215SOL    HW149839   5.466   5.938   1.574  0.1479 -0.6375 -0.1396
16215SOL    HW249840   5.480   5.837   1.462 -1.5815  0.5196 -1.4458
16216SOL     OW49841   5.572   6.985   6.115 -0.0657 -0.1535  0.0808
16216SOL    HW149842   5.656   7.029   6.103 -0.4331  0.9930  1.4817
16216SOL    HW249843   5.559   6.982   6.210 -2.4403  1.3923 -0.1109
16217SOL     OW49844   8.269   4.408   6.133 -0.5266  1.0574 -0.1738
16217SOL    HW149845   8.364   4.405   6.121 -0.5487  1.7031 -0.5860
16217SOL    HW249846   8.256   4.382   6.224  0.1543  2.1448  0.2617
16218SOL     OW49847   0.086   5.487   1.452  0.5981 -0.2293  0.2311
16218SOL    HW149848   0.023   5.419   1.425  0.5108 -0.7326  1.6067
16218SOL    HW249849   0.060   5.509   1.542  0.7608  1.4939 -0.1156
16219SOL     OW49850   3.594   7.325   5.447 -0.1438 -0.2969 -0.1899
16219SOL    HW149851   3.641   7.303   5.366  0.2701  2.3561 -0.7545
16219SOL    HW249852   3.649   7.391   5.489 -2.3710  1.4658  0.1335
16220SOL     OW49853   1.594   0.925   0.933  0.4644  0.4274 -0.2945
16220SOL    HW149854   1.541   0.991   0.887  0.1918 -1.0652 -2.2656
16220SOL    HW249855   1.546   0.908   1.014 -1.1650  0.4076 -1.2183
16221SOL     OW49856   7.719   1.292   7.657 -0.8044 -0.0036  0.2061
16221SOL    HW149857   7.630   1.320   7.678 -0.7809  1.4680 -1.4182
16221SOL    HW249858   7.760   1.369   7.620  0.9313 -0.8721  0.2493
16222SOL     OW49859   2.310   2.311   8.522  0.3853 -0.0938  0.5580
16222SOL    HW149860   2.365   2.272   8.455 -1.3116  3.5643 -3.4888
16222SOL    HW249861   2.299   2.402   8.493 -4.7392  0.3841  2.9427
16223SOL     OW49862   7.203   1.334   8.322  0.0898 -0.3798  0.5539
16223SOL    HW149863   7.149   1.324   8.243  0.8829 -0.1137 -0.0425
16223SOL    HW249864   7.270   1.397   8.296  0.5005 -0.4753  1.3729
16224SOL     OW49865   6.670   0.188   6.143 -0.1884 -0.0167 -0.6425
16224SOL    HW149866   6.725   0.257   6.106 -0.8004 -0.4686 -2.4831
16224SOL    HW249867   6.731   0.119   6.166  0.1919  0.2029 -0.9767
16225SOL     OW49868   0.669   0.689   0.804 -0.2023  0.1716 -0.2998
16225SOL    HW149869   0.678   0.595   0.785 -1.3045  0.1035 -0.5517
16225SOL    HW249870   0.753   0.714   0.841 -0.2564 -1.1750  0.8400
16226SOL     OW49871   4.603   6.813   6.254  0.6367 -0.6055 -0.3279
16226SOL    HW149872   4.527   6.797   6.197 -0.1707  2.0959 -0.1531
16226SOL    HW249873   4.569   6.802   6.343  1.1485 -1.8921 -0.2680
16227SOL     OW49874   1.324   6.959   1.936  0.3434  0.4982 -0.4251
16227SOL    HW149875   1.352   7.047   1.911 -0.0798  0.2473 -1.8828
16227SOL    HW249876   1.239   6.948   1.894 -0.0821 -0.2437  0.5926
16228SOL     OW49877   7.391   8.386   6.104 -0.1568  0.6769  0.1925
16228SOL    HW149878   7.477   8.402   6.143 -0.8906  1.9111  1.3823
16228SOL    HW249879   7.357   8.473   6.085 -1.8128  0.3072  1.2837
16229SOL     OW49880   7.975   4.843   2.267 -0.0494 -0.0895 -0.5197
16229SOL    HW149881   7.999   4.791   2.343 -1.5903  1.7448  1.3373
16229SOL    HW249882   7.931   4.781   2.208 -1.9639 -0.9428  1.6675
16230SOL     OW49883   1.489   2.899   3.644  0.6456  0.3047  0.2761
16230SOL    HW149884   1.422   2.912   3.712  0.1025 -0.5642 -0.0780
16230SOL    HW249885   1.539   2.981   3.644  0.7353  0.2960  1.8007
16231SOL     OW49886   3.136   8.175   0.238 -0.4611 -0.5194 -0.7903
16231SOL    HW149887   3.123   8.123   0.159  0.3484 -1.3443 -0.4079
16231SOL    HW249888   3.159   8.111   0.306  0.1410  0.2896 -0.1990
16232SOL     OW49889   7.865   7.444   3.194 -0.7088 -0.0436 -0.1560
16232SOL    HW149890   7.853   7.513   3.259  2.1337 -0.4063  0.9159
16232SOL    HW249891   7.933   7.479   3.136 -0.9571 -1.0025 -1.0426
16233SOL     OW49892   2.002   2.952   2.782 -0.2839  0.1070  0.2509
16233SOL    HW149893   1.918   2.939   2.827 -1.2588  0.6431 -1.3182
16233SOL    HW249894   2.023   3.044   2.797 -0.5289  0.2457 -0.2632
16234SOL     OW49895   0.240   1.804   3.849  0.0637 -0.1100  0.4233
16234SOL    HW149896   0.254   1.796   3.754 -1.1886  1.1914  0.1030
16234SOL    HW249897   0.247   1.714   3.881 -0.8334 -0.7698 -1.1081
16235SOL     OW49898   3.917   6.654   5.466 -0.4993 -0.0470  0.1434
16235SOL    HW149899   3.837   6.623   5.424 -0.2190 -1.8747  0.8920
16235SOL    HW249900   3.886   6.712   5.536 -1.0248  1.4851 -1.2850
16236SOL     OW49901   4.796   7.149   2.903 -0.1023 -0.4295 -0.0567
16236SOL    HW149902   4.700   7.145   2.899 -0.0352 -1.4763 -1.5744
16236SOL    HW249903   4.816   7.125   2.994 -1.2463 -2.3987 -0.2410
16237SOL     OW49904   7.583   4.057   3.968  0.4294  0.4351 -0.2922
16237SOL    HW149905   7.621   3.993   4.028  1.7766  0.4496 -1.0844
16237SOL    HW249906   7.532   4.005   3.906 -1.7641  0.4981  1.3734
16238SOL     OW49907   4.102   4.914   8.219 -0.5724  0.0137 -0.1458
16238SOL    HW149908   4.132   4.936   8.307  1.0864 -0.2356 -0.6195
16238SOL    HW249909   4.017   4.959   8.211  0.0261  1.4359  0.9696
16239SOL     OW49910   7.187   3.669   6.815 -0.2474  0.1276 -0.0743
16239SOL    HW149911   7.257   3.604   6.812 -1.4522 -1.1931 -1.2934
16239SOL    HW249912   7.109   3.618   6.838 -1.1166  1.2715 -0.4035
16240SOL     OW49913   6.796   6.430   6.667  0.7535 -0.3109  0.8883
16240SOL    HW149914   6.847   6.495   6.715  0.5976  0.6713 -0.2265
16240SOL    HW249915   6.739   6.391   6.734 -0.9705  2.4909  1.2255
16241SOL     OW49916   4.386   6.548   1.596  0.3008  0.4987 -0.0612
16241SOL    HW149917   4.356   6.596   1.673 -1.7701 -1.0379  0.2068
16241SOL    HW249918   4.472   6.513   1.620  0.3912  1.3679  0.9250
16242SOL     OW49919   1.209   3.363   2.354  0.3026  0.4621 -0.5255
16242SOL    HW149920   1.173   3.448   2.378  0.0843  0.2288 -0.0163
16242SOL    HW249921   1.232   3.322   2.437  0.4794  0.0579 -0.7710
16243SOL     OW49922   4.568   3.618   5.226 -0.0304  0.6364 -0.2335
16243SOL    HW149923   4.614   3.664   5.297 -0.3656  0.1937  0.2822
16243SOL    HW249924   4.532   3.540   5.268  0.2675  0.0603 -1.0220
16244SOL     OW49925   2.131   3.215   6.964  0.1573 -0.6020 -0.0996
16244SOL    HW149926   2.119   3.263   6.882 -0.9979  0.7438  0.8019
16244SOL    HW249927   2.043   3.211   7.002  0.9355  0.3884  1.9103
16245SOL     OW49928   6.532   7.642   3.860  0.2426 -0.0652  0.4474
16245SOL    HW149929   6.464   7.675   3.800  0.2805  1.3731  1.1466
16245SOL    HW249930   6.544   7.551   3.834 -0.9664  0.0360 -0.6052
16246SOL     OW49931   8.320   5.023   6.589  0.2774 -0.3870  0.5087
16246SOL    HW149932   8.243   5.051   6.638 -0.1787  0.4878 -0.6625
16246SOL    HW249933   8.343   5.098   6.534 -0.9643 -2.1917 -2.7449
16247SOL     OW49934   7.841   4.351   2.351  0.7486  0.1600 -0.0269
16247SOL    HW149935   7.930   4.384   2.360  1.4551 -1.8867  1.1194
16247SOL    HW249936   7.797   4.377   2.432 -0.3275  2.6856 -1.2935
16248SOL     OW49937   4.324   6.351   6.662 -0.1224 -0.9719  0.1638
16248SOL    HW149938   4.374   6.290   6.716 -0.5028 -1.5088 -0.0822
16248SOL    HW249939   4.238   6.354   6.703  0.6252  1.4932  1.7971
16249SOL     OW49940   2.000   4.226   4.297 -0.0492 -0.1524  0.3108
16249SOL    HW149941   2.015   4.139   4.261  0.6082 -0.3356  1.0084
16249SOL    HW249942   1.922   4.217   4.351 -0.0463 -0.2766  0.2944
16250SOL     OW49943   4.524   0.682   1.433  0.6057  0.0522  0.1404
16250SOL    HW149944   4.509   0.626   1.357  1.9247  1.3517 -1.1309
16250SOL    HW249945   4.496   0.769   1.405  1.4354  0.6231  1.0209
16251SOL     OW49946   7.201   8.132   2.368  0.1585 -0.4729 -0.1151
16251SOL    HW149947   7.273   8.077   2.337  1.0555 -0.0367  1.1233
16251SOL    HW249948   7.180   8.098   2.455 -0.2580  0.2362  0.0728
16252SOL     OW49949   0.373   1.239   6.675  0.5965  0.2735  0.0787
16252SOL    HW149950   0.384   1.181   6.750  0.4617 -0.6035 -0.5499
16252SOL    HW249951   0.280   1.231   6.653  0.5523  0.8289  0.0651
16253SOL     OW49952   0.364   4.607   4.217  0.0716  0.0803 -0.6879
16253SOL    HW149953   0.355   4.668   4.143  0.8162 -0.2484 -1.0594
16253SOL    HW249954   0.369   4.664   4.294  1.4418  0.5516 -1.0912
16254SOL     OW49955   5.788   2.898   5.132  0.2025  0.0509  0.2443
16254SOL    HW149956   5.790   2.983   5.088  3.2212  0.2668  0.5450
16254SOL    HW249957   5.711   2.902   5.188  0.4991  2.8025  0.6080
16255SOL     OW49958   5.200   2.868   0.827 -0.2114  0.3888 -0.5947
16255SOL    HW149959   5.157   2.953   0.824  0.8859  0.9720 -0.1732
16255SOL    HW249960   5.291   2.885   0.804  0.2857 -0.4771  0.5880
16256SOL     OW49961   2.684   0.646   6.146  0.0248  0.8569  0.7493
16256SOL    HW149962   2.727   0.659   6.062 -1.6213 -0.7793 -0.4279
16256SOL    HW249963   2.735   0.577   6.189 -1.3071 -1.1134 -0.6588
16257SOL     OW49964   2.907   6.904   2.253  0.0913 -0.2921 -0.2605
16257SOL    HW149965   2.882   6.880   2.164  1.3284 -0.2496 -0.6363
16257SOL    HW249966   2.960   6.830   2.283  1.1282  0.4630 -0.1970
16258SOL     OW49967   4.284   5.855   5.161  0.1611 -0.0392  0.8945
16258SOL    HW149968   4.241   5.941   5.164  0.4245  0.0897  3.6022
16258SOL    HW249969   4.214   5.795   5.134 -0.3726  0.8309  0.2685
16259SOL     OW49970   3.010   4.424   0.831  0.1463 -0.1282 -0.5387
16259SOL    HW149971   2.955   4.432   0.753 -0.8124  0.5508  0.1707
16259SOL    HW249972   3.077   4.492   0.821 -0.6161  0.6750 -0.2858
16260SOL     OW49973   3.866   2.210   8.200  0.0559  0.4119 -0.0971
16260SOL    HW149974   3.799   2.253   8.254 -0.3713  1.1597 -1.1793
16260SOL    HW249975   3.816   2.161   8.135  0.5481  0.8856 -0.8431
16261SOL     OW49976   3.966   3.824   1.716  0.0945 -0.3114 -0.1468
16261SOL    HW149977   3.949   3.750   1.774  0.5048 -1.9654 -2.0316
16261SOL    HW249978   4.055   3.851   1.738 -0.2081 -0.0627  0.8421
16262SOL     OW49979   1.877   1.015   7.063 -0.2425 -0.1309  0.4518
16262SOL    HW149980   1.816   1.054   7.000  0.9300  0.2019 -0.5085
16262SOL    HW249981   1.878   1.077   7.136 -0.3224  0.3566  0.0469
16263SOL     OW49982   0.352   2.692   5.670 -0.2314 -0.6414 -0.1479
16263SOL    HW149983   0.443   2.688   5.701  0.0152  2.7737 -0.0298
16263SOL    HW249984   0.351   2.766   5.609 -2.5963 -1.7365 -1.5865
16264SOL     OW49985   7.963   2.215   8.467  0.1877  0.3958  0.1951
16264SOL    HW149986   7.907   2.222   8.545 -0.2294  1.6538 -0.1998
16264SOL    HW249987   8.022   2.143   8.487 -0.7625 -0.1496  1.1435
16265SOL     OW49988   4.389   0.713   2.670  0.3358 -0.5248  0.4610
16265SOL    HW149989   4.368   0.646   2.735  1.0986 -1.7004 -0.4612
16265SOL    HW249990   4.376   0.670   2.586 -0.8709  1.0440 -0.2101
16266SOL     OW49991   3.760   2.222   1.537  0.3672 -0.9142  0.2472
16266SOL    HW149992   3.757   2.193   1.628  0.8092 -1.1946  0.1762
16266SOL    HW249993   3.853   2.229   1.518  0.3603  2.5928  0.8991
16267SOL     OW49994   1.516   4.917   8.443  0.5277 -0.1556  0.1682
16267SOL    HW149995   1.473   4.878   8.367  0.6387 -0.8299  0.4457
16267SOL    HW249996   1.444   4.945   8.499  0.4021 -2.0749  1.0409
16268SOL     OW49997   2.347   7.711   4.760 -0.0204  0.2014 -0.0190
16268SOL    HW149998   2.368   7.802   4.783 -0.2663  0.1182  0.5744
16268SOL    HW249999   2.427   7.662   4.779 -0.6339 -0.0933  2.1003
16269SOL     OW50000   8.328   0.022   7.627  0.2263  0.3295 -0.5897
16269SOL    HW150001   8.235   0.003   7.644  0.3357  1.6276  1.9728
16269SOL    HW250002   8.331   0.045   7.534 -1.4669 -2.4814 -1.4655
16270SOL     OW50003   8.037   1.436   0.879 -0.3122  0.0339 -0.2594
16270SOL    HW150004   8.099   1.503   0.907 -1.5897  1.9660 -1.7282
16270SOL    HW250005   7.963   1.444   0.939  1.0382 -2.8982  2.0898
16271SOL     OW50006   4.597   1.525   5.164  1.1017  0.1251 -1.1476
16271SOL    HW150007   4.557   1.583   5.100  0.3082  0.1124 -0.6685
16271SOL    HW250008   4.594   1.574   5.246  1.8684  0.0332 -1.0554
16272SOL     OW50009   3.946   4.172   7.780  0.2603 -0.3375 -0.0914
16272SOL    HW150010   3.939   4.082   7.746 -0.5273 -0.0159 -0.8323
16272SOL    HW250011   3.857   4.195   7.806  0.6778 -0.1968  1.2630
16273SOL     OW50012   0.281   5.274   0.174  0.1618  0.8537 -0.0311
16273SOL    HW150013   0.256   5.239   0.260 -1.4006 -1.4701 -1.3325
16273SOL    HW250014   0.198   5.299   0.133  0.7637  0.8458 -1.3005
16274SOL     OW50015   0.202   1.748   1.356 -0.0809 -0.3628 -0.1941
16274SOL    HW150016   0.152   1.804   1.416  2.1370  2.1954 -0.5509
16274SOL    HW250017   0.270   1.805   1.321  1.1571 -2.8363 -2.1329
16275SOL     OW50018   4.053   2.618   2.445 -0.1484 -0.5213  0.0083
16275SOL    HW150019   4.019   2.654   2.526 -0.8041 -0.8648 -0.1111
16275SOL    HW250020   3.989   2.553   2.418 -0.6629  0.5248 -1.4865
16276SOL     OW50021   1.341   2.621   1.893  0.1782  0.5164 -0.3701
16276SOL    HW150022   1.327   2.705   1.849  0.6870  0.2916 -0.9804
16276SOL    HW250023   1.268   2.614   1.955  1.2129  2.3341  1.1409
16277SOL     OW50024   5.887   4.652   7.410  0.2390  0.3582 -0.6412
16277SOL    HW150025   5.800   4.670   7.374  0.5827  0.8411 -1.2389
16277SOL    HW250026   5.942   4.636   7.333 -0.1358 -3.9935 -0.2666
16278SOL     OW50027   3.490   8.355   4.086  0.0627 -0.4091 -0.5717
16278SOL    HW150028   3.522   8.283   4.140  1.9503  0.3526 -0.6099
16278SOL    HW250029   3.497   8.322   3.996  2.6979  0.3715 -0.7398
16279SOL     OW50030   2.294   1.097   6.350 -0.0728  0.3551  0.5716
16279SOL    HW150031   2.232   1.151   6.400 -0.0504 -0.5243  1.5838
16279SOL    HW250032   2.310   1.021   6.406  0.2017 -0.5206 -0.6584
16280SOL     OW50033   3.608   3.534   6.734 -0.0741  0.4151 -0.4309
16280SOL    HW150034   3.552   3.466   6.694 -0.0812  0.0564  0.1696
16280SOL    HW250035   3.556   3.567   6.807 -0.3542  1.5679 -1.1316
16281SOL     OW50036   6.237   1.396   3.329 -0.4410 -0.2412  0.1672
16281SOL    HW150037   6.328   1.425   3.317 -0.8333  1.5283  1.1609
16281SOL    HW250038   6.235   1.309   3.289  1.6723 -0.3056  0.0546
16282SOL     OW50039   3.229   5.508   4.412  0.7120 -0.1327 -0.5871
16282SOL    HW150040   3.243   5.598   4.384  0.2423  0.4507  0.9110
16282SOL    HW250041   3.317   5.474   4.428  0.8701  1.3919  2.5811
16283SOL     OW50042   3.972   4.519   8.274  0.3997  0.0462 -0.4910
16283SOL    HW150043   4.056   4.521   8.227  1.0096 -2.5720  0.3231
16283SOL    HW250044   3.964   4.606   8.312  3.4303  0.0229  0.4714
16284SOL     OW50045   8.342   7.157   7.856 -0.1412 -0.8491  0.4839
16284SOL    HW150046   8.395   7.077   7.848  1.8549  0.5601 -1.7406
16284SOL    HW250047   8.391   7.213   7.916  0.2746 -0.0059 -0.6216
16285SOL     OW50048   0.103   4.818   8.188 -0.1512  0.7197  0.5426
16285SOL    HW150049   0.175   4.875   8.212  0.0832  0.5825  0.1817
16285SOL    HW250050   0.066   4.790   8.271  0.8529 -0.0124  0.7675
16286SOL     OW50051   1.716   3.071   0.865  0.2886  0.1317  0.5989
16286SOL    HW150052   1.745   3.099   0.952 -0.6660 -0.8546  1.2622
16286SOL    HW250053   1.665   2.992   0.881  0.9344 -0.6520 -0.9673
16287SOL     OW50054   2.866   1.563   4.462  0.0892 -0.5858 -0.4651
16287SOL    HW150055   2.938   1.626   4.454  0.0893 -0.0009  2.8078
16287SOL    HW250056   2.787   1.616   4.465 -0.1268 -0.9217 -0.0961
16288SOL     OW50057   7.747   2.187   7.570 -0.8218  0.7602  0.0423
16288SOL    HW150058   7.798   2.151   7.643 -0.7954 -1.9161 -1.1727
16288SOL    HW250059   7.810   2.240   7.521  0.5728 -1.3931 -0.6833
16289SOL     OW50060   7.668   3.663   3.328  0.0199 -0.2326 -0.1155
16289SOL    HW150061   7.757   3.668   3.364  0.4525 -1.2988 -0.9805
16289SOL    HW250062   7.622   3.604   3.388  0.3330 -0.8680 -0.4890
16290SOL     OW50063   3.818   0.072   5.596  0.1721 -0.1897 -0.2428
16290SOL    HW150064   3.894   0.111   5.639 -0.6729 -0.7145  1.8393
16290SOL    HW250065   3.856   0.006   5.537  1.4001  1.1388 -1.0153
16291SOL     OW50066   3.526   2.217   3.961 -0.3690  0.2242  0.2533
16291SOL    HW150067   3.467   2.143   3.949 -1.0581  1.0505 -1.9570
16291SOL    HW250068   3.613   2.177   3.963 -0.7671 -0.7148 -0.2848
16292SOL     OW50069   5.342   2.184   6.516 -0.9159 -0.2053 -0.9217
16292SOL    HW150070   5.306   2.107   6.561 -1.2074 -0.0169 -0.8330
16292SOL    HW250071   5.396   2.227   6.582 -3.4831  1.6041  0.1847
16293SOL     OW50072   3.412   2.568   6.439  0.2187  0.6273  0.0802
16293SOL    HW150073   3.371   2.482   6.430  0.3517  0.3903  1.5638
16293SOL    HW250074   3.339   2.629   6.451  0.1505  0.6621 -0.4859
16294SOL     OW50075   2.100   7.209   7.112 -0.1159  0.2148  0.2425
16294SOL    HW150076   2.050   7.216   7.194  0.3066 -0.7943  0.5944
16294SOL    HW250077   2.178   7.160   7.136  0.0023 -0.1071 -0.7819
16295SOL     OW50078   8.177   5.632   8.594  0.6147  0.3428  0.1035
16295SOL    HW150079   8.260   5.608   8.553  0.3430  0.5734 -0.5953
16295SOL    HW250080   8.166   5.569   8.665  1.1080 -0.0421 -0.1568
16296SOL     OW50081   3.829   0.286   8.025  0.3240  0.0582  0.0099
16296SOL    HW150082   3.762   0.314   7.962 -0.0192  1.0007  0.7645
16296SOL    HW250083   3.849   0.366   8.074 -0.5854 -0.9738  2.1779
16297SOL     OW50084   3.874   2.276   5.913  0.1151 -0.2765  0.6264
16297SOL    HW150085   3.879   2.363   5.873  1.2903 -0.0714  1.1676
16297SOL    HW250086   3.783   2.268   5.942 -0.1620  0.5137  0.0064
16298SOL     OW50087   4.327   2.839   5.451  0.0232  0.7346  0.0770
16298SOL    HW150088   4.233   2.835   5.471 -0.2357 -0.8666 -1.1684
16298SOL    HW250089   4.331   2.830   5.355  1.4087  2.0754 -0.0235
16299SOL     OW50090   6.966   3.697   3.297  0.0463 -0.5821 -0.5455
16299SOL    HW150091   7.049   3.667   3.260 -0.2976 -2.7251  0.3112
16299SOL    HW250092   6.987   3.718   3.388  0.0800  1.0436 -0.8936
16300SOL     OW50093   0.591   1.802   0.377 -0.3543  0.0159  0.2006
16300SOL    HW150094   0.531   1.746   0.426 -0.2569 -0.2252  0.0406
16300SOL    HW250095   0.660   1.744   0.347  0.8147  0.5501  1.7235
16301SOL     OW50096   7.994   2.975   8.496 -0.1020  0.0794 -0.1405
16301SOL    HW150097   7.968   2.912   8.564  0.7707  0.7636  0.8574
16301SOL    HW250098   8.089   2.983   8.506 -0.1381  1.1807 -0.5913
16302SOL     OW50099   8.545   7.894   4.601 -0.6278 -0.0874  0.3562
16302SOL    HW150100   8.521   7.879   4.509  1.2629  1.2384 -0.4381
16302SOL    HW250101   8.610   7.826   4.620 -0.4766  0.0835  0.4572
16303SOL     OW50102   6.769   7.210   1.923  0.4894  0.3850 -0.2191
16303SOL    HW150103   6.764   7.188   2.016 -0.5352  1.4818  0.0011
16303SOL    HW250104   6.853   7.255   1.914  0.6027  0.2578  0.1681
16304SOL     OW50105   1.338   5.500   7.900  0.3073 -0.4577  0.5503
16304SOL    HW150106   1.409   5.563   7.889  0.1516 -0.0398  1.7324
16304SOL    HW250107   1.326   5.494   7.995 -1.3718 -0.3653  0.3740
16305SOL     OW50108   7.028   4.983   0.975  0.0681  0.0562  0.1590
16305SOL    HW150109   7.048   4.889   0.968 -2.2189 -0.6609  1.9496
16305SOL    HW250110   7.084   5.013   1.047 -1.2001 -0.6534  1.4893
16306SOL     OW50111   2.366   7.182   4.328 -0.0401 -0.7528  0.3026
16306SOL    HW150112   2.361   7.278   4.328  1.0010 -0.6703 -0.7591
16306SOL    HW250113   2.442   7.162   4.381  2.4557 -0.6995 -2.9193
16307SOL     OW50114   5.457   3.020   4.715  0.4847 -0.0234 -0.4929
16307SOL    HW150115   5.525   3.012   4.647 -0.5995 -1.1924 -1.4902
16307SOL    HW250116   5.461   3.112   4.742  1.8195  0.1566 -1.2065
16308SOL     OW50117   0.615   7.214   4.670  0.1725  0.1780 -0.4234
16308SOL    HW150118   0.594   7.172   4.753 -1.0626  0.4863 -0.5720
16308SOL    HW250119   0.674   7.152   4.626 -1.0111 -1.0760 -0.3125
16309SOL     OW50120   4.744   5.480   3.723 -0.0499 -0.4494 -0.7068
16309SOL    HW150121   4.725   5.517   3.809 -0.2752 -0.4900 -0.7382
16309SOL    HW250122   4.710   5.545   3.661 -3.0724 -1.9523 -0.7871
16310SOL     OW50123   7.402   3.519   1.777 -0.4858  0.0963 -0.2691
16310SOL    HW150124   7.471   3.584   1.777 -0.7602  0.3918 -0.7503
16310SOL    HW250125   7.407   3.477   1.691 -0.6953 -0.0966 -0.1900
16311SOL     OW50126   6.823   5.765   0.798 -0.1089  0.4462 -0.3296
16311SOL    HW150127   6.779   5.680   0.793  1.0369 -0.1032 -1.9154
16311SOL    HW250128   6.916   5.743   0.804  0.1616  1.5955 -0.1300
16312SOL     OW50129   4.781   6.160   0.130 -0.2280  0.6191  0.2962
16312SOL    HW150130   4.687   6.176   0.140 -0.2178  0.7543  0.1858
16312SOL    HW250131   4.800   6.188   0.041 -0.2120 -0.0509  0.0844
16313SOL     OW50132   2.744   0.858   8.115  0.2101 -0.1825 -0.0114
16313SOL    HW150133   2.744   0.868   8.210 -1.4595 -1.5176  0.1751
16313SOL    HW250134   2.699   0.935   8.082  0.6673  0.2152  0.2750
16314SOL     OW50135   1.071   2.749   0.680 -0.3418 -0.3154  0.3347
16314SOL    HW150136   1.030   2.708   0.604  2.3829  0.7383 -1.8714
16314SOL    HW250137   1.093   2.837   0.651  0.7275  0.1648  2.3963
16315SOL     OW50138   0.780   1.117   4.516 -0.3381  0.9509 -0.0559
16315SOL    HW150139   0.703   1.066   4.491  0.8524 -0.8027 -0.3264
16315SOL    HW250140   0.806   1.162   4.436  0.6729 -0.8857 -0.8134
16316SOL     OW50141   7.390   7.781   1.795 -0.4888  0.4094  0.1912
16316SOL    HW150142   7.423   7.845   1.732 -0.1096 -0.0306 -0.0656
16316SOL    HW250143   7.466   7.725   1.813 -1.5116 -1.8481 -1.8925
16317SOL     OW50144   5.577   7.150   4.119 -0.5861 -0.1791  0.1030
16317SOL    HW150145   5.557   7.216   4.186 -1.3134  0.4223 -0.6800
16317SOL    HW250146   5.501   7.092   4.118 -0.0609 -0.8937  0.6071
16318SOL     OW50147   8.480   4.486   0.832 -0.1080  0.5187 -0.3962
16318SOL    HW150148   8.412   4.539   0.791 -1.4100 -0.5761  0.2509
16318SOL    HW250149   8.551   4.547   0.852 -1.4596  1.9701  0.1180
16319SOL     OW50150   7.363   7.647   5.642 -0.0078 -0.1071  0.7057
16319SOL    HW150151   7.389   7.641   5.550  2.2840 -0.5344  1.3297
16319SOL    HW250152   7.289   7.709   5.642 -1.2580 -1.4497 -1.6079
16320SOL     OW50153   8.601   0.891   6.243  0.9277 -0.0120 -0.0377
16320SOL    HW150154   8.564   0.808   6.271  0.0867  1.4047  3.6853
16320SOL    HW250155   8.589   0.892   6.148 -2.4859 -2.5230  0.1746
16321SOL     OW50156   5.027   0.571   7.799 -0.5081  0.4117  0.1518
16321SOL    HW150157   5.120   0.584   7.784 -0.1318 -1.7676  0.3738
16321SOL    HW250158   4.995   0.657   7.827  1.5201  1.0756  0.5562
16322SOL     OW50159   2.658   2.329   0.785 -0.0145 -0.3461 -0.1844
16322SOL    HW150160   2.602   2.387   0.734  0.5303 -0.9423 -1.4995
16322SOL    HW250161   2.733   2.312   0.729  0.8949 -0.5791  1.0478
16323SOL     OW50162   7.777   0.338   5.905 -0.8734 -0.2493  0.4212
16323SOL    HW150163   7.691   0.378   5.895 -0.8177  0.3333  1.9758
16323SOL    HW250164   7.759   0.245   5.920 -1.3698  0.0988  2.2425
16324SOL     OW50165   3.336   5.392   5.872  0.0288  0.2227 -0.2887
16324SOL    HW150166   3.324   5.404   5.966  0.0629  1.9119 -0.4699
16324SOL    HW250167   3.248   5.402   5.835 -0.8069 -4.5698 -0.1610
16325SOL     OW50168   3.686   6.500   3.459 -0.6848  0.4014 -0.5558
16325SOL    HW150169   3.695   6.431   3.394 -0.9049  0.8863 -1.1082
16325SOL    HW250170   3.769   6.502   3.506 -0.3297  0.4151 -1.1878
16326SOL     OW50171   6.210   4.799   5.549  0.1277 -0.2792  0.8803
16326SOL    HW150172   6.202   4.884   5.506  0.4253 -0.9157 -0.4831
16326SOL    HW250173   6.210   4.820   5.642  0.6900  1.2596  0.5763
16327SOL     OW50174   2.144   6.998   3.999  0.4868 -0.4387 -0.0241
16327SOL    HW150175   2.094   6.990   3.917  0.0815  1.4892 -0.0152
16327SOL    HW250176   2.089   6.955   4.065  1.4691 -3.3159 -0.9213
16328SOL     OW50177   5.866   4.649   3.342 -0.4445  0.5831  0.0688
16328SOL    HW150178   5.958   4.627   3.325 -0.2205  0.1465  1.6928
16328SOL    HW250179   5.817   4.597   3.278  0.3944 -0.0015 -0.1174
16329SOL     OW50180   7.371   5.556   3.744 -0.1344  0.5065  0.4727
16329SOL    HW150181   7.367   5.524   3.834  0.1623 -1.0623 -0.0458
16329SOL    HW250182   7.280   5.577   3.722 -0.2839  0.3558  0.9463
16330SOL     OW50183   0.990   0.185   7.970 -0.2275 -0.3071 -0.0778
16330SOL    HW150184   0.998   0.100   8.015 -1.8098 -0.6817 -0.4708
16330SOL    HW250185   1.080   0.205   7.943  0.0608 -2.3156 -0.8083
16331SOL     OW50186   8.233   4.224   2.690 -0.4418 -1.0318  0.8504
16331SOL    HW150187   8.297   4.156   2.671 -0.7261 -1.7867  2.4722
16331SOL    HW250188   8.177   4.187   2.758 -3.1935 -0.7653 -1.0713
16332SOL     OW50189   3.153   1.722   3.435  0.2212  0.0587 -0.3472
16332SOL    HW150190   3.155   1.627   3.421 -1.6667  0.0547 -0.9153
16332SOL    HW250191   3.064   1.748   3.410  0.5426  1.9164  0.2670
16333SOL     OW50192   8.314   8.364   2.227  0.2679 -0.6738 -0.5620
16333SOL    HW150193   8.245   8.427   2.209  1.1902 -0.3181 -3.1552
16333SOL    HW250194   8.383   8.416   2.268 -0.2864 -0.7074  0.4575
16334SOL     OW50195   2.982   5.975   8.520 -0.2803 -0.0833  0.3952
16334SOL    HW150196   3.006   6.025   8.441  3.8218 -0.6384  1.0965
16334SOL    HW250197   2.961   5.888   8.487 -1.2278  0.3597 -0.2490
16335SOL     OW50198   6.296   3.448   1.811 -0.4327 -0.2098 -0.0448
16335SOL    HW150199   6.371   3.508   1.812 -0.4709 -0.1529 -0.3199
16335SOL    HW250200   6.284   3.423   1.902 -1.9614  2.1331  0.4877
16336SOL     OW50201   3.553   4.547   7.552  0.7752 -0.1978  0.2300
16336SOL    HW150202   3.576   4.465   7.508  1.8088  1.2140 -2.0010
16336SOL    HW250203   3.559   4.526   7.646 -1.4037 -3.2912 -0.1759
16337SOL     OW50204   6.862   3.461   7.090  0.2888  0.0848  0.6869
16337SOL    HW150205   6.801   3.466   7.017  1.8923  0.3187 -0.7079
16337SOL    HW250206   6.889   3.369   7.091  0.1787  0.0570  1.0647
16338SOL     OW50207   7.341   3.163   0.391  0.1099  0.4506  0.2035
16338SOL    HW150208   7.373   3.080   0.426 -0.2087 -0.2976 -1.2267
16338SOL    HW250209   7.418   3.220   0.392  0.6855 -0.3069 -0.1427
16339SOL     OW50210   0.832   1.147   3.133 -0.6829  0.0338 -0.2149
16339SOL    HW150211   0.823   1.242   3.142  1.1909  0.1009  1.4673
16339SOL    HW250212   0.768   1.111   3.195  1.1262  0.3080  1.9210
16340SOL     OW50213   3.811   4.244   4.415  0.5564  0.1527  0.3098
16340SOL    HW150214   3.726   4.270   4.379  0.5262 -0.1931  0.1279
16340SOL    HW250215   3.810   4.277   4.505 -0.4634 -1.2829  0.8794
16341SOL     OW50216   6.191   6.599   6.079 -0.1277 -0.3991 -0.2171
16341SOL    HW150217   6.144   6.652   6.014 -0.7010  0.8973  1.2060
16341SOL    HW250218   6.170   6.509   6.055 -0.4090  0.0355 -1.7630
16342SOL     OW50219   3.970   4.710   1.690 -0.2789 -0.2336  0.1748
16342SOL    HW150220   3.910   4.731   1.618  0.3793  4.6547  0.7544
16342SOL    HW250221   4.055   4.744   1.661  0.8867 -1.5994  1.8017
16343SOL     OW50222   8.268   6.219   6.652  0.1672 -0.6031  0.3484
16343SOL    HW150223   8.338   6.202   6.589  1.4873  1.5076  1.0937
16343SOL    HW250224   8.279   6.152   6.719 -0.9002 -2.5248 -1.3019
16344SOL     OW50225   1.638   0.674   8.308 -0.0351 -0.1801 -0.2144
16344SOL    HW150226   1.611   0.583   8.312 -0.8703  0.0457 -0.5031
16344SOL    HW250227   1.702   0.683   8.378 -0.6184 -0.7688  0.4117
16345SOL     OW50228   1.919   8.436   1.208  0.0690  0.2695 -0.3796
16345SOL    HW150229   1.872   8.402   1.284 -0.8680 -0.8642 -1.4357
16345SOL    HW250230   1.999   8.384   1.204  0.7743  1.2253  0.5662
16346SOL     OW50231   7.459   4.383   1.413  0.1073  0.2279 -0.8845
16346SOL    HW150232   7.537   4.362   1.464 -0.6129  0.8569  0.5686
16346SOL    HW250233   7.395   4.316   1.439 -0.6666  1.2897  0.0565
16347SOL     OW50234   0.614   7.466   3.528 -0.0877 -0.0711 -0.2150
16347SOL    HW150235   0.612   7.533   3.596 -0.1910  2.1722 -2.2856
16347SOL    HW250236   0.526   7.429   3.528 -0.5105  0.9048 -0.0252
16348SOL     OW50237   1.410   0.197   7.590 -0.7306 -0.2765  0.0361
16348SOL    HW150238   1.425   0.113   7.634 -0.3391  0.0620  0.5615
16348SOL    HW250239   1.496   0.222   7.556 -0.5815  0.4795  0.9208
16349SOL     OW50240   6.557   6.460   6.029  0.3548 -0.5497 -0.9282
16349SOL    HW150241   6.495   6.386   6.029 -1.1075  0.5673  0.8215
16349SOL    HW250242   6.622   6.437   6.095  0.0097 -0.3862 -0.5243
16350SOL     OW50243   1.050   2.306   5.454  0.4656  0.6284 -0.0915
16350SOL    HW150244   1.062   2.212   5.441 -1.5935  0.1654  0.8192
16350SOL    HW250245   1.062   2.345   5.368 -1.1241 -0.8265 -1.0377
16351SOL     OW50246   5.622   7.907   7.980 -0.2720 -0.3529 -0.3571
16351SOL    HW150247   5.696   7.957   8.015  0.5295 -0.1895 -2.1481
16351SOL    HW250248   5.656   7.817   7.972 -0.9565 -0.7199  0.7060
16352SOL     OW50249   4.046   6.801   6.471 -0.5757  0.3789  0.5461
16352SOL    HW150250   4.023   6.885   6.511 -0.4789  1.4682 -1.5398
16352SOL    HW250251   4.001   6.802   6.386  0.6489 -1.0054 -0.1624
16353SOL     OW50252   0.634   5.478   1.325 -0.0001 -0.0541  0.3535
16353SOL    HW150253   0.640   5.555   1.268 -0.8157  0.2995  0.7260
16353SOL    HW250254   0.544   5.480   1.358 -0.1889 -1.4634 -0.0419
16354SOL     OW50255   2.467   1.214   1.453  0.4201 -0.0552  0.1520
16354SOL    HW150256   2.456   1.267   1.531 -0.6238  0.3284 -0.2408
16354SOL    HW250257   2.497   1.129   1.485  0.1593  0.1504  0.9556
16355SOL     OW50258   2.711   5.219   0.011 -0.3004 -0.3032 -0.1935
16355SOL    HW150259   2.648   5.167  -0.038 -0.4744  0.8349 -1.2229
16355SOL    HW250260   2.664   5.243   0.092 -0.6036 -0.8203 -0.2150
16356SOL     OW50261   3.169   1.993   3.401 -0.1305  0.1570  0.6731
16356SOL    HW150262   3.183   1.918   3.458 -0.3412 -1.0790 -0.8352
16356SOL    HW250263   3.212   1.969   3.319 -1.9681  0.7862 -0.5284
16357SOL     OW50264   6.087   5.934   3.440 -0.4682  0.1293 -0.4697
16357SOL    HW150265   6.013   5.959   3.495 -0.3293  0.3140 -0.3634
16357SOL    HW250266   6.110   6.015   3.394 -0.4704  0.0190 -0.6656
16358SOL     OW50267   3.488   0.878   6.140  0.0782  0.2498 -0.0247
16358SOL    HW150268   3.449   0.806   6.190  1.4750 -1.2769 -1.0002
16358SOL    HW250269   3.436   0.883   6.060  0.0479  0.2419 -0.0054
16359SOL     OW50270   3.519   2.340   2.548 -0.2365 -0.4518  0.6435
16359SOL    HW150271   3.470   2.419   2.529  1.6304  0.4823 -0.5937
16359SOL    HW250272   3.576   2.364   2.621 -0.6469 -1.1115  1.1953
16360SOL     OW50273   3.125   1.161   1.142  0.3877  0.0052  0.2083
16360SOL    HW150274   3.102   1.080   1.187  0.0632  0.1870  0.3712
16360SOL    HW250275   3.041   1.202   1.121  0.5468  0.8952  1.2134
16361SOL     OW50276   2.996   5.815   6.126 -0.0247  0.3338  0.2240
16361SOL    HW150277   3.056   5.875   6.081  1.0102 -0.5052  0.4314
16361SOL    HW250278   3.053   5.745   6.160 -0.6590  1.1741  3.3299
16362SOL     OW50279   2.703   5.786   0.196  0.1472 -0.1128 -0.0155
16362SOL    HW150280   2.784   5.832   0.216  0.0665 -0.1463  0.3866
16362SOL    HW250281   2.731   5.701   0.162  0.2814 -0.0693 -0.0128
16363SOL     OW50282   0.085   2.515   0.933 -0.5966  0.1554  0.7927
16363SOL    HW150283   0.051   2.599   0.965 -0.4339  0.3606  0.4336
16363SOL    HW250284   0.008   2.469   0.900 -0.6026  0.4078  0.4505
16364SOL     OW50285   4.729   2.287   4.348 -0.1456 -0.8665 -0.1326
16364SOL    HW150286   4.706   2.256   4.436  0.2419  0.7624  0.5854
16364SOL    HW250287   4.792   2.357   4.364 -0.4621 -0.1985 -1.7044
16365SOL     OW50288   7.197   7.479   5.789  0.1988  0.0904  0.0622
16365SOL    HW150289   7.260   7.430   5.841  2.3375  1.4401 -1.1281
16365SOL    HW250290   7.250   7.537   5.734 -2.0507  0.8222 -1.5078
16366SOL     OW50291   3.864   3.560   6.831 -0.4729  0.8535  0.0361
16366SOL    HW150292   3.787   3.576   6.777 -1.1990 -0.4805  0.6387
16366SOL    HW250293   3.834   3.573   6.921 -0.2221 -0.4248  0.3245
16367SOL     OW50294   4.722   2.837   5.891 -0.1528  0.2421 -0.4385
16367SOL    HW150295   4.777   2.855   5.966 -1.0628 -0.2688  0.3816
16367SOL    HW250296   4.763   2.762   5.848  0.0617  0.1827 -0.1302
16368SOL     OW50297   0.245   2.565   6.961 -0.1606  0.2778 -0.5742
16368SOL    HW150298   0.169   2.601   6.916 -0.0970  0.3970 -0.5874
16368SOL    HW250299   0.213   2.484   7.002  0.3396 -1.2030 -2.8743
16369SOL     OW50300   1.377   2.939   0.642 -0.4005 -0.0740 -0.4085
16369SOL    HW150301   1.357   3.032   0.650 -0.5682 -0.1490  0.0597
16369SOL    HW250302   1.471   2.936   0.624 -0.7117  0.2653 -2.2864
16370SOL     OW50303   4.519   7.961   8.384 -0.0496  0.2140 -0.1937
16370SOL    HW150304   4.494   7.979   8.293 -0.3528  1.7142  0.1506
16370SOL    HW250305   4.469   7.883   8.408  1.3829 -1.2994 -1.8306
16371SOL     OW50306   1.862   7.862   0.759  0.3188 -0.0175  0.3982
16371SOL    HW150307   1.779   7.834   0.720 -0.1383  0.9936  0.6077
16371SOL    HW250308   1.907   7.780   0.780 -0.6998 -0.5906  0.4333
16372SOL     OW50309   6.685   1.472   8.075  0.2107  0.2314  0.2257
16372SOL    HW150310   6.682   1.568   8.072 -0.9299  0.1849 -0.6864
16372SOL    HW250311   6.690   1.452   8.169 -0.6986  1.1687  0.4965
16373SOL     OW50312   8.171   4.733   5.436 -0.0143 -0.0033  0.0381
16373SOL    HW150313   8.184   4.652   5.386 -3.0399 -0.4075 -0.3132
16373SOL    HW250314   8.151   4.703   5.524  1.4025  0.5346  0.5663
16374SOL     OW50315   0.371   3.229   7.235 -0.1958  0.0981  0.2040
16374SOL    HW150316   0.452   3.215   7.184  0.5689  1.1338  1.0760
16374SOL    HW250317   0.310   3.165   7.200  0.8613 -0.4171 -0.8035
16375SOL     OW50318   5.773   5.757   4.501  0.0360  0.1234 -0.2349
16375SOL    HW150319   5.795   5.688   4.564  3.1317  0.3381 -0.9138
16375SOL    HW250320   5.856   5.800   4.483 -0.8563  0.7269 -3.7094
16376SOL     OW50321   4.747   4.942   0.663 -0.0412 -0.3202 -0.1502
16376SOL    HW150322   4.703   4.936   0.578  1.8207 -0.7276 -1.1611
16376SOL    HW250323   4.813   4.873   0.659  0.2104 -0.2016  1.5677
16377SOL     OW50324   5.265   7.284   1.413  0.5866  0.2676  0.0035
16377SOL    HW150325   5.176   7.277   1.377  0.6731  0.7431 -0.3118
16377SOL    HW250326   5.259   7.355   1.477  0.5656 -0.2021  0.5281
16378SOL     OW50327   7.675   5.158   0.278 -0.7468  0.1481 -0.2992
16378SOL    HW150328   7.685   5.127   0.188 -0.6245  0.1100 -0.2731
16378SOL    HW250329   7.746   5.115   0.326 -0.0914  1.0656 -0.4174
16379SOL     OW50330   5.755   8.053   2.006 -0.2293  0.1604  0.3549
16379SOL    HW150331   5.727   7.968   1.970 -0.5236  0.3513  0.1321
16379SOL    HW250332   5.700   8.066   2.083  0.2278 -0.1298  0.7413
16380SOL     OW50333   3.313   8.268   0.419 -0.4774 -0.2061 -0.2716
16380SOL    HW150334   3.301   8.363   0.422  0.9161  0.0819 -2.0653
16380SOL    HW250335   3.248   8.238   0.355  0.4079 -0.1620 -1.2195
16381SOL     OW50336   0.290   2.128   7.912  0.1451 -0.4326  0.1717
16381SOL    HW150337   0.240   2.164   7.985 -0.9591  1.4308 -1.3921
16381SOL    HW250338   0.242   2.049   7.886 -0.8399  0.2042 -0.0032
16382SOL     OW50339   4.835   1.713   1.567 -0.0137 -0.7187  0.0675
16382SOL    HW150340   4.773   1.652   1.607  0.6788 -0.1493  2.1073
16382SOL    HW250341   4.920   1.689   1.604  0.3036  1.3612  0.8123
16383SOL     OW50342   2.573   5.246   2.054 -0.2649  0.1871 -0.5619
16383SOL    HW150343   2.540   5.163   2.088  0.4934  0.0657 -0.1044
16383SOL    HW250344   2.590   5.300   2.131  2.0595 -0.3143 -0.6458
16384SOL     OW50345   2.634   8.055   7.888  0.1198 -0.1384  0.3876
16384SOL    HW150346   2.711   8.070   7.942 -0.0122  0.1163  0.5037
16384SOL    HW250347   2.563   8.040   7.951  0.3249 -1.6979  0.2975
16385SOL     OW50348   3.809   1.865   4.139 -0.0134  0.3681 -1.1069
16385SOL    HW150349   3.902   1.846   4.156  0.0382  0.2011 -1.5627
16385SOL    HW250350   3.808   1.958   4.114 -0.0819  0.5985 -0.2664
16386SOL     OW50351   6.273   7.712   4.572 -0.7947 -0.7987 -0.1611
16386SOL    HW150352   6.213   7.753   4.509 -0.9805 -2.7494 -1.3084
16386SOL    HW250353   6.343   7.777   4.582 -0.7903 -0.3713 -2.3291
16387SOL     OW50354   0.142   0.322   3.071  0.5143  0.2113  1.0155
16387SOL    HW150355   0.124   0.236   3.033  0.3645  0.5835  0.2238
16387SOL    HW250356   0.224   0.311   3.119 -0.0526 -0.6444  1.8206
16388SOL     OW50357   0.152   0.658   3.805  0.0372  0.2197 -0.3215
16388SOL    HW150358   0.160   0.563   3.801  0.8952  0.2916 -0.8173
16388SOL    HW250359   0.104   0.676   3.886  2.5882 -0.5241  1.4936
16389SOL     OW50360   1.574   0.914   2.107  0.2230  0.5197  0.0045
16389SOL    HW150361   1.594   0.875   2.193 -0.8780  0.5214  0.2728
16389SOL    HW250362   1.514   0.986   2.127 -0.1410  0.4417 -0.7818
16390SOL     OW50363   5.109   4.223   3.308 -0.2248  0.2851 -0.5564
16390SOL    HW150364   5.045   4.163   3.270 -1.0052  0.7407  0.0291
16390SOL    HW250365   5.123   4.191   3.397 -2.4186  2.2613  0.6000
16391SOL     OW50366   8.434   0.801   2.436  0.0505 -0.3964 -0.4419
16391SOL    HW150367   8.450   0.749   2.357  1.5629 -0.0074 -0.4262
16391SOL    HW250368   8.429   0.736   2.506  1.1728 -0.6073 -0.5312
16392SOL     OW50369   0.885   3.164   2.550 -0.4138 -0.1718  0.2772
16392SOL    HW150370   0.932   3.247   2.553  0.7657 -0.8415  1.6874
16392SOL    HW250371   0.832   3.169   2.470  0.9016  1.2394 -0.5675
16393SOL     OW50372   7.803   6.558   6.676  1.1802 -0.1878  0.3694
16393SOL    HW150373   7.871   6.563   6.744  0.6997  0.7764  0.7904
16393SOL    HW250374   7.727   6.602   6.715  0.9889  0.6534 -0.9035
16394SOL     OW50375   7.463   3.856   3.554 -0.0254  0.4070  0.0052
16394SOL    HW150376   7.467   3.777   3.609 -1.7394  1.6441  2.0242
16394SOL    HW250377   7.441   3.927   3.614 -0.6641  2.0916 -2.0905
16395SOL     OW50378   2.343   4.472   6.166 -0.0394 -0.0519 -0.4739
16395SOL    HW150379   2.312   4.555   6.130  0.2901 -0.0884 -0.8456
16395SOL    HW250380   2.264   4.418   6.173 -0.5231  0.8230  1.2655
16396SOL     OW50381   5.696   4.027   8.242 -0.4406  0.1353 -0.5823
16396SOL    HW150382   5.739   4.096   8.191  1.4961 -0.3940  0.2287
16396SOL    HW250383   5.762   4.002   8.307 -1.2806 -2.1103 -0.5156
16397SOL     OW50384   8.121   7.268   4.489 -0.3091 -0.0943 -0.3835
16397SOL    HW150385   8.197   7.306   4.531 -0.5719  3.2846 -2.6143
16397SOL    HW250386   8.047   7.321   4.519 -1.3085 -1.1726 -0.8281
16398SOL     OW50387   0.472   7.965   3.156 -0.0140 -0.1154  0.0961
16398SOL    HW150388   0.495   8.010   3.237 -0.1718 -1.0824  0.6827
16398SOL    HW250389   0.382   7.992   3.138 -0.2744 -0.5808  0.7059
16399SOL     OW50390   8.429   5.142   4.374  0.1334  0.6372  0.3012
16399SOL    HW150391   8.378   5.083   4.319 -1.8586  0.5909  2.0504
16399SOL    HW250392   8.510   5.158   4.325 -0.2843 -1.6450 -1.2763
16400SOL     OW50393   1.120   8.277   1.570 -0.2267  0.2551 -0.3291
16400SOL    HW150394   1.188   8.288   1.503  0.1779  0.8395  0.1601
16400SOL    HW250395   1.052   8.339   1.546 -0.3523  0.0350 -0.5357
16401SOL     OW50396   7.722   4.674   4.861  0.1184 -0.2841  0.5764
16401SOL    HW150397   7.795   4.703   4.917  1.0850 -1.1319 -0.2091
16401SOL    HW250398   7.748   4.587   4.830 -0.9180 -0.3085 -0.2890
16402SOL     OW50399   3.316   3.470   3.283  0.2785 -0.0099 -0.0264
16402SOL    HW150400   3.247   3.419   3.326 -1.8417 -0.3694 -3.4758
16402SOL    HW250401   3.316   3.554   3.328  0.9046 -1.4644  3.0075
16403SOL     OW50402   6.165   2.344   4.319 -0.1224  0.4747  0.4003
16403SOL    HW150403   6.247   2.389   4.338  0.3795 -0.0925 -0.4070
16403SOL    HW250404   6.181   2.253   4.344 -0.1276  0.1353 -0.8042
16404SOL     OW50405   2.709   0.226   4.113  0.1942 -0.2308  0.4691
16404SOL    HW150406   2.624   0.201   4.075  0.7862 -0.2027 -0.9218
16404SOL    HW250407   2.695   0.220   4.208 -1.7838  1.1438  0.3308
16405SOL     OW50408   2.915   0.081   2.802  0.4737 -0.1571  0.2780
16405SOL    HW150409   2.860   0.070   2.880  0.8596 -0.4781  0.5071
16405SOL    HW250410   2.900   0.002   2.750 -1.0863  0.7974 -0.8083
16406SOL     OW50411   6.721   1.740   5.075  0.2425 -0.3001  0.3150
16406SOL    HW150412   6.782   1.722   5.147 -0.3858  2.5228  1.7037
16406SOL    HW250413   6.773   1.788   5.010  0.3901 -1.3043 -0.3226
16407SOL     OW50414   8.049   6.008   2.792  0.0462  0.0422 -0.3082
16407SOL    HW150415   8.011   5.940   2.847  0.8649 -0.2578 -0.0986
16407SOL    HW250416   8.030   6.089   2.838  0.2931 -0.1654  0.1775
16408SOL     OW50417   1.819   1.805   2.622  0.4374  0.2578 -1.0743
16408SOL    HW150418   1.725   1.804   2.601  0.5449  1.8705 -1.8430
16408SOL    HW250419   1.841   1.898   2.627  1.8021 -0.0909  0.1127
16409SOL     OW50420   1.733   0.034   5.927  0.1293  0.3471 -0.5220
16409SOL    HW150421   1.671  -0.032   5.958 -0.3849  1.6213  1.3323
16409SOL    HW250422   1.694   0.068   5.846  1.1052 -2.5092 -2.3473
16410SOL     OW50423   0.386   3.638   6.849  0.0241 -0.2542  0.1264
16410SOL    HW150424   0.313   3.586   6.814  0.8591 -1.3710  0.0020
16410SOL    HW250425   0.462   3.580   6.842  0.8613  0.7710  0.5756
16411SOL     OW50426   2.632   7.671   1.576  0.3183 -0.0442  0.3165
16411SOL    HW150427   2.561   7.619   1.614  1.0551 -1.0037  0.4388
16411SOL    HW250428   2.647   7.741   1.639 -0.3281  0.0005  0.4288
16412SOL     OW50429   6.710   4.700   2.523  0.3238  0.6941 -0.2541
16412SOL    HW150430   6.681   4.785   2.491  0.4642  0.8481  0.0179
16412SOL    HW250431   6.645   4.676   2.589 -0.0255  0.3278 -0.7225
16413SOL     OW50432   5.567   8.232   5.262  0.4113  0.2510 -0.4673
16413SOL    HW150433   5.486   8.180   5.261  1.0023 -0.6977 -0.8416
16413SOL    HW250434   5.553   8.299   5.196 -0.7380  1.1840  0.6690
16414SOL     OW50435   1.286   0.206   3.182  0.2957  0.1271 -0.5029
16414SOL    HW150436   1.317   0.244   3.265 -2.2338 -0.1320  0.6752
16414SOL    HW250437   1.235   0.130   3.209  2.1347 -1.9630 -2.5948
16415SOL     OW50438   0.819   1.703   1.866 -0.1024  0.2059 -0.0198
16415SOL    HW150439   0.904   1.704   1.910 -1.5600  0.9122  3.0943
16415SOL    HW250440   0.766   1.640   1.916 -1.8977  1.0190 -0.7862
16416SOL     OW50441   8.308   7.673   5.076  0.0372  0.1340  0.1911
16416SOL    HW150442   8.339   7.675   4.985  0.0217  0.7361  0.1905
16416SOL    HW250443   8.213   7.665   5.069 -0.0485  1.0567  0.1235
16417SOL     OW50444   6.260   2.309   5.923 -0.1046 -0.5071  0.5449
16417SOL    HW150445   6.214   2.255   5.858  0.2117 -0.6320  0.4229
16417SOL    HW250446   6.227   2.397   5.909  0.3583 -0.4373 -0.1469
16418SOL     OW50447   1.176   4.501   7.812 -0.2003  0.1664  0.1101
16418SOL    HW150448   1.166   4.584   7.858  2.0072  1.3466 -1.3795
16418SOL    HW250449   1.257   4.463   7.848 -1.2361 -1.4446  0.8541
16419SOL     OW50450   6.407   7.875   4.327 -0.3278 -0.0499  0.0305
16419SOL    HW150451   6.374   7.954   4.370 -1.6398 -0.4178 -0.2412
16419SOL    HW250452   6.476   7.843   4.385 -1.8292 -0.3570  1.7468
16420SOL     OW50453   8.061   3.606   7.109  0.1556  0.0291  0.2066
16420SOL    HW150454   8.117   3.652   7.047 -0.2509 -0.6450 -0.6758
16420SOL    HW250455   8.095   3.517   7.111 -1.8626 -0.8489 -1.6258
16421SOL     OW50456   0.034   7.639   7.362 -0.2190  0.0261 -0.2731
16421SOL    HW150457   0.112   7.689   7.338 -0.5265  0.3944 -0.5190
16421SOL    HW250458  -0.030   7.661   7.293 -0.6529  0.0121  0.1234
16422SOL     OW50459   3.963   8.237   8.504 -0.0972  0.7930  0.3168
16422SOL    HW150460   4.020   8.193   8.441 -0.6301  1.0113 -0.3346
16422SOL    HW250461   4.020   8.298   8.551  0.3465  0.4760  0.1939
16423SOL     OW50462   5.503   1.262   1.158  0.1560  0.0456 -0.3944
16423SOL    HW150463   5.523   1.231   1.070  1.5407 -0.6182  0.1235
16423SOL    HW250464   5.569   1.221   1.214 -0.4073  0.8142  0.8935
16424SOL     OW50465   6.392   3.714   4.139  0.1776  0.0136  0.0851
16424SOL    HW150466   6.354   3.714   4.051  1.2753 -0.7874 -0.4065
16424SOL    HW250467   6.335   3.773   4.190 -0.7683  0.0841 -1.0199
16425SOL     OW50468   5.267   7.248   7.142 -0.2446 -0.2122 -0.3893
16425SOL    HW150469   5.342   7.291   7.102 -1.5649  1.3830 -1.2637
16425SOL    HW250470   5.286   7.248   7.236  0.0797  1.7825 -0.4190
16426SOL     OW50471   8.028   6.713   7.192  0.2323  0.4967  0.5378
16426SOL    HW150472   8.098   6.703   7.127 -0.4816  0.5524 -0.2503
16426SOL    HW250473   8.018   6.808   7.201  0.7656  0.4958  1.2162
16427SOL     OW50474   4.684   5.509   4.668  0.3990 -0.1386 -0.4395
16427SOL    HW150475   4.640   5.561   4.601  0.0226  0.8824  0.5667
16427SOL    HW250476   4.620   5.442   4.693 -0.2105  0.6831  0.2608
16428SOL     OW50477   7.957   2.406   1.565  0.3998  0.7049 -0.3172
16428SOL    HW150478   7.911   2.430   1.645  1.2718  0.6578  0.2115
16428SOL    HW250479   7.995   2.487   1.533 -1.1231  1.0057 -1.4929
16429SOL     OW50480   5.300   5.196   4.891  0.0315 -0.1994 -0.0995
16429SOL    HW150481   5.354   5.118   4.902  0.7753  0.6264  3.0235
16429SOL    HW250482   5.218   5.176   4.935 -0.6682  0.0445 -1.2270
16430SOL     OW50483   4.944   4.179   1.697 -0.4049 -0.0799 -0.9823
16430SOL    HW150484   4.980   4.091   1.693 -0.0579 -0.2282  2.2951
16430SOL    HW250485   5.018   4.235   1.722 -1.2866  0.4705  0.6088
16431SOL     OW50486   5.962   1.562   0.459  0.3084 -0.8731  0.5490
16431SOL    HW150487   6.019   1.618   0.407  0.0498 -0.8525  0.2840
16431SOL    HW250488   5.908   1.622   0.510  1.7837 -0.8917  2.2154
16432SOL     OW50489   4.303   1.541   0.775 -0.3851 -0.6534  0.5399
16432SOL    HW150490   4.295   1.633   0.799 -0.2290 -0.8498  1.3747
16432SOL    HW250491   4.396   1.528   0.757 -0.1818 -0.9413  1.7137
16433SOL     OW50492   4.562   2.442   5.055  0.1466 -0.1548 -0.1101
16433SOL    HW150493   4.547   2.536   5.063 -0.6733 -0.3613  1.0531
16433SOL    HW250494   4.565   2.426   4.961  0.6098  1.0769 -0.3238
16434SOL     OW50495   5.070   4.390   6.749 -0.0118  0.2657 -0.1531
16434SOL    HW150496   4.986   4.377   6.706 -0.4247 -0.2887  0.7953
16434SOL    HW250497   5.130   4.333   6.702 -0.6522 -1.0183  0.5594
16435SOL     OW50498   8.190   8.285   0.943 -0.2340 -0.0090  0.2577
16435SOL    HW150499   8.157   8.279   0.854 -1.4215  0.2408  0.6661
16435SOL    HW250500   8.208   8.378   0.956 -1.5279  0.2029  0.7574
16436SOL     OW50501   6.679   5.579   2.055  0.5209 -0.1941 -0.2873
16436SOL    HW150502   6.739   5.563   1.982  0.0901  0.6711 -0.8310
16436SOL    HW250503   6.706   5.514   2.121  2.7653  0.8379 -0.0822
16437SOL     OW50504   3.369   8.105   3.069 -0.6104 -0.5470  0.1260
16437SOL    HW150505   3.307   8.067   3.132 -0.5834  2.4119  2.1077
16437SOL    HW250506   3.451   8.111   3.117 -0.2260  0.5046 -0.6310
16438SOL     OW50507   1.470   4.923   4.295 -0.4507  0.3172  0.3313
16438SOL    HW150508   1.420   4.841   4.303 -1.1855  0.7483  0.1514
16438SOL    HW250509   1.517   4.929   4.378 -2.0120  0.7565  1.2326
16439SOL     OW50510   2.872   1.269   3.884  0.6321 -0.1383  0.8736
16439SOL    HW150511   2.967   1.261   3.880  0.5340 -1.0357 -0.8675
16439SOL    HW250512   2.842   1.228   3.803 -1.2124  0.5959  1.1470
16440SOL     OW50513   6.398   7.495   6.874  0.2728 -0.2101  0.2294
16440SOL    HW150514   6.351   7.573   6.843  0.1309 -0.2967  0.2280
16440SOL    HW250515   6.406   7.440   6.797 -1.6973 -1.2580  0.6962
16441SOL     OW50516   3.542   2.638   5.307  0.6193  0.1667 -0.3632
16441SOL    HW150517   3.488   2.578   5.358  1.6535 -1.2107 -0.8258
16441SOL    HW250518   3.631   2.604   5.315  1.4517  2.3095  0.2859
16442SOL     OW50519   8.566   2.041   1.159 -0.1206 -0.2810  0.5352
16442SOL    HW150520   8.578   2.075   1.070 -0.6447 -1.9875 -0.2215
16442SOL    HW250521   8.562   1.946   1.148 -2.9640 -0.4378  2.0453
16443SOL     OW50522   5.157   5.374   4.509  0.0264 -0.2668  0.2180
16443SOL    HW150523   5.067   5.385   4.480  0.3617  0.5627 -0.5494
16443SOL    HW250524   5.203   5.341   4.432  0.5662  0.2210  0.3246
16444SOL     OW50525   2.119   5.635   8.501  0.3907  0.8823  0.0232
16444SOL    HW150526   2.148   5.672   8.417  0.0911  2.4504  0.5662
16444SOL    HW250527   2.139   5.704   8.565  0.7762 -0.3576  1.2756
16445SOL     OW50528   4.678   3.283   4.137 -0.5275 -0.2552 -0.2269
16445SOL    HW150529   4.704   3.223   4.068 -2.1932 -0.5932 -0.5997
16445SOL    HW250530   4.671   3.368   4.094  0.3491 -0.0646 -0.0221
16446SOL     OW50531   5.250   7.277   7.790 -0.0761 -0.1519 -0.8110
16446SOL    HW150532   5.229   7.183   7.788  0.4856 -0.2759 -1.0400
16446SOL    HW250533   5.320   7.285   7.854 -2.5342  0.6458  1.9771
16447SOL     OW50534   7.420   3.057   0.025 -0.1177 -0.1426  0.4481
16447SOL    HW150535   7.388   3.105  -0.051 -0.2589 -1.6007 -0.4314
16447SOL    HW250536   7.404   3.117   0.099 -1.0169  0.8290 -0.5019
16448SOL     OW50537   7.502   8.456   4.570  0.0359  0.5709  0.3870
16448SOL    HW150538   7.487   8.417   4.485 -1.9609  1.5808  0.2200
16448SOL    HW250539   7.494   8.550   4.556 -2.6550  0.6898  2.0232
16449SOL     OW50540   5.033   3.495   1.912  0.0869 -0.2546 -0.1616
16449SOL    HW150541   4.972   3.559   1.876  1.8915  0.8239 -1.5271
16449SOL    HW250542   5.060   3.531   1.996  0.1570  0.1577 -0.3594
16450SOL     OW50543   0.662   0.697   7.987  0.4773  0.2514  0.2389
16450SOL    HW150544   0.750   0.692   7.952  1.5972  0.0261  2.8763
16450SOL    HW250545   0.663   0.773   8.045 -1.5894  1.2605 -0.9143
16451SOL     OW50546   6.143   0.001   2.564  0.0419  0.5252 -0.2191
16451SOL    HW150547   6.159  -0.085   2.524  1.3983  0.9459 -0.6261
16451SOL    HW250548   6.099  -0.019   2.646  2.0678 -0.7130  0.6284
16452SOL     OW50549   4.548   4.687   4.646  0.1436 -0.2476 -0.2625
16452SOL    HW150550   4.590   4.695   4.560  1.8343  0.7212  0.6014
16452SOL    HW250551   4.572   4.767   4.692 -0.6931 -0.7634  1.1359
16453SOL     OW50552   4.280   1.180   0.684 -0.3466  0.1402 -0.5205
16453SOL    HW150553   4.210   1.155   0.624 -1.5534  0.0678  0.8868
16453SOL    HW250554   4.241   1.245   0.742  0.6317 -0.1839  0.5426
16454SOL     OW50555   8.464   3.335   5.781  0.9279  0.0308 -0.2586
16454SOL    HW150556   8.498   3.420   5.809  0.6278  0.6587 -1.7008
16454SOL    HW250557   8.381   3.326   5.827  0.6535  0.8296 -0.5854
16455SOL     OW50558   5.246   0.038   6.429  0.0987  0.1755  0.0156
16455SOL    HW150559   5.340   0.051   6.431  0.0995  0.0727  0.6188
16455SOL    HW250560   5.213   0.088   6.503 -0.2839 -0.0859  0.0255
16456SOL     OW50561   4.265   0.563   1.661 -0.7751  0.0641 -0.9658
16456SOL    HW150562   4.196   0.514   1.706  0.1313 -0.2471  0.1393
16456SOL    HW250563   4.310   0.498   1.607  0.2248 -0.2854  0.2538
16457SOL     OW50564   6.475   1.249   7.886  0.1170  0.0874  0.3488
16457SOL    HW150565   6.425   1.323   7.919  0.0727 -0.3752  1.3401
16457SOL    HW250566   6.565   1.267   7.912  0.0277 -0.4529  1.0379
16458SOL     OW50567   7.448   4.493   5.472  0.3361  0.2149 -0.1397
16458SOL    HW150568   7.472   4.565   5.530 -2.0543  1.4304 -0.5246
16458SOL    HW250569   7.433   4.534   5.387  0.6456 -1.0317 -0.8226
16459SOL     OW50570   3.064   5.344   3.931  0.2790  0.4504 -0.2970
16459SOL    HW150571   3.131   5.297   3.981 -1.5411 -0.9438  0.9940
16459SOL    HW250572   3.110   5.419   3.893  2.3107  0.1824  1.4431
16460SOL     OW50573   6.186   2.234   0.757  0.4539  0.2633  0.1408
16460SOL    HW150574   6.273   2.199   0.775  1.0917  0.9988 -1.3949
16460SOL    HW250575   6.174   2.225   0.663 -1.1923  0.0706  0.3319
16461SOL     OW50576   0.920   3.211   0.562 -0.1023  0.5133 -0.1753
16461SOL    HW150577   0.871   3.216   0.643  0.6232  1.0222  0.2468
16461SOL    HW250578   0.854   3.200   0.494 -0.6149 -1.6826  0.6225
16462SOL     OW50579   4.673   6.190   4.736  0.3319  0.6176 -0.6570
16462SOL    HW150580   4.769   6.197   4.739  0.1835  4.4570  2.4103
16462SOL    HW250581   4.650   6.136   4.811  0.0698  0.6669 -0.6998
16463SOL     OW50582   0.685   3.580   2.211 -0.1122 -0.3180 -0.6101
16463SOL    HW150583   0.621   3.648   2.231  1.6880  0.8102  1.7051
16463SOL    HW250584   0.704   3.538   2.295  0.0471 -2.6440 -1.7080
16464SOL     OW50585   1.628   1.060   4.970 -0.0452  0.7317  0.6230
16464SOL    HW150586   1.635   0.989   5.034  2.2400  0.3309  0.0311
16464SOL    HW250587   1.551   1.039   4.918  0.8241 -1.6050  0.1844
16465SOL     OW50588   1.081   6.204   5.106 -0.3451  0.3647  0.0162
16465SOL    HW150589   1.153   6.157   5.063  0.4131  0.1239  1.5140
16465SOL    HW250590   1.060   6.275   5.045  1.0592  0.3556 -0.5237
16466SOL     OW50591   8.265   4.298   5.626  0.8665 -0.6857 -0.1236
16466SOL    HW150592   8.295   4.208   5.618 -0.6761 -1.2814  0.2731
16466SOL    HW250593   8.286   4.322   5.716 -1.2869 -1.7224  0.7341
16467SOL     OW50594   7.230   1.318   3.767  0.5509 -0.3760  0.0701
16467SOL    HW150595   7.319   1.285   3.779  1.1490  1.9767  3.4358
16467SOL    HW250596   7.236   1.378   3.693  2.4752  1.6521  1.7570
16468SOL     OW50597   7.777   6.340   0.783 -0.0073  0.0356  0.4487
16468SOL    HW150598   7.828   6.321   0.862  0.1991 -0.1876  0.2639
16468SOL    HW250599   7.796   6.267   0.724 -0.6589 -0.1270  0.4321
16469SOL     OW50600   7.285   2.370   4.709 -0.4229 -0.1431 -0.8329
16469SOL    HW150601   7.293   2.450   4.657 -1.8095 -0.0289 -0.9090
16469SOL    HW250602   7.214   2.389   4.771  1.7939  0.1038  1.8267
16470SOL     OW50603   6.343   5.152   2.083 -0.0840  0.2241  0.3602
16470SOL    HW150604   6.437   5.152   2.104  0.1533  0.8693 -0.6400
16470SOL    HW250605   6.329   5.235   2.038 -1.6224  1.2201  2.5330
16471SOL     OW50606   8.240   5.678   3.994  0.4514 -0.1503 -0.1623
16471SOL    HW150607   8.294   5.712   3.922 -0.8873  0.1485 -1.0759
16471SOL    HW250608   8.154   5.666   3.954 -0.9022  1.9754  1.8513
16472SOL     OW50609   0.067   2.032   2.783 -0.1010  0.7627  1.1168
16472SOL    HW150610   0.067   1.998   2.694 -0.5728  1.8235  0.6902
16472SOL    HW250611   0.107   1.962   2.836 -0.4509 -0.1606  0.1948
16473SOL     OW50612   1.451   5.519   0.482 -0.5390  0.1481 -0.2408
16473SOL    HW150613   1.417   5.438   0.443 -2.3183 -0.0757  1.5896
16473SOL    HW250614   1.538   5.495   0.515 -1.4786 -1.4316  1.2790
16474SOL     OW50615   2.787   5.117   1.551  0.3346 -0.4549  0.1568
16474SOL    HW150616   2.717   5.181   1.567  0.6481 -0.3682  1.2678
16474SOL    HW250617   2.866   5.158   1.586  0.4447 -1.6429  1.4209
16475SOL     OW50618   6.205   4.214   1.026 -0.3988 -0.1750  0.0826
16475SOL    HW150619   6.267   4.186   1.093  0.4020  2.1101  0.4170
16475SOL    HW250620   6.129   4.247   1.075 -0.5634 -0.1293 -0.1977
16476SOL     OW50621   7.396   6.483   6.778  0.1307 -0.4364 -0.5077
16476SOL    HW150622   7.389   6.508   6.871  1.1671 -0.4733 -0.4120
16476SOL    HW250623   7.452   6.550   6.739  1.1353 -1.3749 -0.7269
16477SOL     OW50624   2.054   8.504   1.569  0.4462 -0.1647 -0.3435
16477SOL    HW150625   1.981   8.567   1.569  2.0076  1.7649  0.7776
16477SOL    HW250626   2.014   8.422   1.540 -2.1010  0.8727 -0.1000
16478SOL     OW50627   3.249   6.421   5.792  0.1808  0.4326  0.2229
16478SOL    HW150628   3.329   6.368   5.803  0.0314  0.3036  0.6895
16478SOL    HW250629   3.258   6.491   5.855  0.3321  0.9213 -0.3336
16479SOL     OW50630   6.190   5.581   1.099 -0.4302  1.0929  0.6083
16479SOL    HW150631   6.131   5.585   1.023 -0.4701  1.2968  0.6491
16479SOL    HW250632   6.254   5.651   1.083 -0.2837  0.9637  0.6330
16480SOL     OW50633   4.914   2.877   4.924  0.5601  0.2325 -0.2033
16480SOL    HW150634   4.930   2.846   4.834 -0.5219 -0.6073 -0.1310
16480SOL    HW250635   4.833   2.926   4.918  0.5946  0.3477  0.2787
16481SOL     OW50636   5.530   7.285   3.480  0.1072  0.1305  0.1427
16481SOL    HW150637   5.517   7.310   3.572 -1.1562  0.7595 -0.1858
16481SOL    HW250638   5.446   7.249   3.453  0.3170  0.4009 -0.9083
16482SOL     OW50639   0.384   3.939   3.684  0.7008  0.1705  0.5618
16482SOL    HW150640   0.424   3.853   3.694  0.9379  0.1714 -0.2769
16482SOL    HW250641   0.398   3.983   3.768  0.9246 -0.4597  0.8570
16483SOL     OW50642   5.757   3.056   6.234 -0.0912  0.4718  0.0083
16483SOL    HW150643   5.704   3.001   6.176  0.0767 -0.0142  0.3143
16483SOL    HW250644   5.801   2.995   6.292 -0.3969  0.9658  0.7734
16484SOL     OW50645   4.733   4.218   0.264  0.2013  0.1805  0.0199
16484SOL    HW150646   4.749   4.133   0.303  2.5433  1.4045  2.0090
16484SOL    HW250647   4.658   4.253   0.312 -1.3676 -1.0261 -1.4265
16485SOL     OW50648   2.023   5.075   1.535 -0.0167  0.1119  1.0758
16485SOL    HW150649   2.048   5.163   1.563  0.5654  0.4590 -0.4229
16485SOL    HW250650   2.085   5.054   1.464 -1.1732 -0.8394  0.3093
16486SOL     OW50651   1.409   5.109   5.236  0.2473  1.0256  0.4230
16486SOL    HW150652   1.497   5.147   5.230 -0.0927  1.9938  1.1757
16486SOL    HW250653   1.383   5.126   5.326 -1.2526  1.9948 -0.1634
16487SOL     OW50654   2.267   6.932   1.559  0.3374 -0.4580 -0.1968
16487SOL    HW150655   2.222   6.995   1.617 -0.9838 -1.7376  0.2418
16487SOL    HW250656   2.309   6.986   1.493 -0.2782  0.9221  0.4910
16488SOL     OW50657   1.051   7.428   2.547 -0.1062  0.1792  0.6269
16488SOL    HW150658   1.092   7.512   2.571  3.6440 -1.1480 -0.4617
16488SOL    HW250659   1.042   7.382   2.630  1.3706  0.2689  0.8710
16489SOL     OW50660   2.117   7.345   2.321  0.3016  0.2053  0.4087
16489SOL    HW150661   2.023   7.330   2.310  0.1884  0.0410  1.4582
16489SOL    HW250662   2.149   7.366   2.233 -0.4144 -1.3548 -0.2667
16490SOL     OW50663   7.858   6.594   5.238  0.0677  0.0129  0.0997
16490SOL    HW150664   7.830   6.686   5.239  1.8595  0.6270 -1.3817
16490SOL    HW250665   7.822   6.559   5.157  1.0240 -0.0210 -0.3197
16491SOL     OW50666   1.247   3.357   1.908 -0.2399 -0.5027  0.1654
16491SOL    HW150667   1.290   3.319   1.831 -1.2487 -2.0322  0.3191
16491SOL    HW250668   1.298   3.325   1.982  1.1178  1.4752  0.1909
16492SOL     OW50669   5.357   1.412   1.402  0.5687 -0.0600  0.5667
16492SOL    HW150670   5.405   1.422   1.320 -0.0640 -0.1814  0.1820
16492SOL    HW250671   5.283   1.356   1.380  1.0472 -1.0875  1.4839
16493SOL     OW50672   5.558   7.302   7.163 -0.9459 -0.1157 -0.2661
16493SOL    HW150673   5.526   7.259   7.243  1.4831  0.6771  1.2249
16493SOL    HW250674   5.566   7.230   7.099  0.5780 -1.4834  1.3725
16494SOL     OW50675   1.548   5.410   5.023  0.2573 -0.2333  0.5597
16494SOL    HW150676   1.529   5.504   5.026  1.0231 -0.0506 -0.2648
16494SOL    HW250677   1.537   5.386   4.931  1.2171 -0.7041  0.5587
16495SOL     OW50678   3.531   0.181   7.816 -0.6592  0.1643  0.0417
16495SOL    HW150679   3.457   0.213   7.867  1.5908  1.8315  2.5633
16495SOL    HW250680   3.556   0.099   7.859 -0.9216 -0.3052 -0.6901
16496SOL     OW50681   2.259   7.154   5.272 -0.0823  0.0611 -0.4123
16496SOL    HW150682   2.326   7.096   5.307 -1.5067 -1.4014 -0.0144
16496SOL    HW250683   2.187   7.149   5.335 -0.0741  2.6759 -0.0971
16497SOL     OW50684   7.684   2.852   1.278  0.0873 -0.1117  0.3330
16497SOL    HW150685   7.657   2.843   1.369  0.1096  0.3808  0.3930
16497SOL    HW250686   7.621   2.913   1.240 -2.5396 -3.4557 -1.1323
16498SOL     OW50687   7.710   5.675   3.479  0.3405  0.0886  0.5062
16498SOL    HW150688   7.791   5.640   3.517  0.1917  0.4929  1.2097
16498SOL    HW250689   7.684   5.609   3.415  0.9284 -0.3136  0.6636
16499SOL     OW50690   2.821   7.723   0.309 -0.0324  0.4360 -0.0555
16499SOL    HW150691   2.866   7.705   0.391  0.2186  3.1150  0.4791
16499SOL    HW250692   2.767   7.645   0.294  2.3598 -1.5600  0.8859
16500SOL     OW50693   0.711   2.015   5.308  0.1388 -0.3355  0.1233
16500SOL    HW150694   0.626   1.973   5.298 -0.7878  1.6531 -0.8984
16500SOL    HW250695   0.710   2.087   5.245  1.4445  1.5211  2.0961
16501SOL     OW50696   0.092   8.013   7.804 -0.0391 -0.5705 -0.2906
16501SOL    HW150697   0.032   7.941   7.787 -2.5182  1.5379 -1.0870
16501SOL    HW250698   0.158   8.006   7.734 -0.8104 -1.4689 -0.9596
16502SOL     OW50699   5.556   4.512   5.515 -0.0996  0.2109  0.3655
16502SOL    HW150700   5.630   4.458   5.485  0.9416  0.7607  1.7849
16502SOL    HW250701   5.598   4.588   5.556 -1.3431 -0.2738  2.7525
16503SOL     OW50702   2.379   1.621   1.042 -0.0036 -0.3073  0.1440
16503SOL    HW150703   2.405   1.536   1.076  0.1829 -0.5753 -0.6598
16503SOL    HW250704   2.407   1.683   1.110  0.7044 -0.7965  0.3141
16504SOL     OW50705   8.361   7.577   5.333  0.4200  0.2342  0.3056
16504SOL    HW150706   8.355   7.657   5.384  1.3618  0.8123 -0.4570
16504SOL    HW250707   8.373   7.606   5.242 -0.6813 -0.7682 -0.2052
16505SOL     OW50708   8.400   6.063   5.510 -0.2706  0.2117  0.3071
16505SOL    HW150709   8.376   6.116   5.434  0.2742 -1.2514 -0.9354
16505SOL    HW250710   8.323   6.009   5.527 -0.2788  0.3158  0.5936
16506SOL     OW50711   0.894   6.893   0.023 -0.0817 -0.0331  0.0741
16506SOL    HW150712   0.964   6.888   0.088 -1.2319 -1.5608  1.2707
16506SOL    HW250713   0.882   6.802  -0.006 -3.0795 -0.2564  1.6362
16507SOL     OW50714   8.515   7.155   6.052  0.4619 -0.0088 -0.2915
16507SOL    HW150715   8.459   7.221   6.093  1.0116 -0.2992  1.0004
16507SOL    HW250716   8.468   7.072   6.065  0.5077 -0.0697 -0.5117
16508SOL     OW50717   2.406   7.469   4.372 -0.7888 -0.2010  0.3496
16508SOL    HW150718   2.492   7.485   4.412 -0.2916 -0.4472 -0.6056
16508SOL    HW250719   2.345   7.517   4.429  0.0783  0.7625  0.5150
16509SOL     OW50720   8.035   2.638   5.264  0.2877  0.1183  0.2868
16509SOL    HW150721   7.972   2.655   5.194  0.0765  0.6561  0.5985
16509SOL    HW250722   8.119   2.665   5.228  1.0256 -3.8430 -1.4512
16510SOL     OW50723   0.269   3.032   2.898 -0.4044 -0.3082 -0.1566
16510SOL    HW150724   0.175   3.040   2.911 -0.2254  0.4089  0.8680
16510SOL    HW250725   0.279   2.986   2.815 -1.6680 -2.4154  0.7649
16511SOL     OW50726   5.250   8.381   0.794 -0.5718 -0.1509 -0.2329
16511SOL    HW150727   5.218   8.294   0.773  0.5708 -0.4468 -0.8393
16511SOL    HW250728   5.340   8.382   0.761 -0.3718  1.0559  0.2919
16512SOL     OW50729   2.001   0.285   8.199 -0.2122  0.0299 -0.3164
16512SOL    HW150730   1.998   0.300   8.105 -0.6536 -1.2998 -0.5413
16512SOL    HW250731   2.037   0.197   8.208 -3.1862 -1.2421  0.5401
16513SOL     OW50732   7.664   2.247   8.416  0.0568  0.1682  0.1793
16513SOL    HW150733   7.658   2.156   8.386  0.5782  0.0210  0.5168
16513SOL    HW250734   7.647   2.242   8.510 -0.0310  0.4362  0.1780
16514SOL     OW50735   6.829   6.181   4.147 -0.4397 -0.3127 -0.1611
16514SOL    HW150736   6.806   6.239   4.074 -1.4975  0.1714  0.5433
16514SOL    HW250737   6.747   6.140   4.172  0.2730 -2.1340 -0.6149
16515SOL     OW50738   6.948   2.649   6.901 -0.5406  0.2561 -0.5035
16515SOL    HW150739   6.880   2.666   6.966  0.1101  2.4895 -0.3242
16515SOL    HW250740   7.016   2.601   6.949 -0.0316  1.9511  0.5431
16516SOL     OW50741   4.067   1.365   8.175 -0.0504 -0.0323 -0.3429
16516SOL    HW150742   4.032   1.343   8.261 -0.3393 -1.3161 -0.7612
16516SOL    HW250743   4.162   1.363   8.186 -0.0571 -1.9145 -0.4364
16517SOL     OW50744   3.996   5.033   4.447 -0.3468 -0.5354 -0.1905
16517SOL    HW150745   3.904   5.017   4.467 -0.4535  0.8573  0.5761
16517SOL    HW250746   3.998   5.052   4.353 -1.2082  1.5981  0.1777
16518SOL     OW50747   7.928   5.523   7.941 -0.0461 -0.0109  0.3929
16518SOL    HW150748   7.880   5.579   7.881  0.6171  0.7461  0.5509
16518SOL    HW250749   7.880   5.440   7.940  0.0063 -0.0646 -1.2674
16519SOL     OW50750   6.939   4.245   6.710  0.3183 -0.1073 -0.1001
16519SOL    HW150751   6.985   4.291   6.639 -1.5612 -0.6962 -1.7709
16519SOL    HW250752   6.959   4.153   6.695 -1.7865 -0.4350 -1.2245
16520SOL     OW50753   7.537   7.635   6.126  0.6632  0.5353  0.2898
16520SOL    HW150754   7.481   7.706   6.158 -0.7556 -0.8581  1.0055
16520SOL    HW250755   7.535   7.645   6.031 -1.2486  0.2334  0.2544
16521SOL     OW50756   0.684   7.195   1.496 -0.6424 -0.0141  0.0144
16521SOL    HW150757   0.661   7.273   1.546  0.8728  1.3771 -1.3423
16521SOL    HW250758   0.650   7.212   1.408 -0.0627 -0.7647 -0.3641
16522SOL     OW50759   4.240   6.327   5.721 -0.5579  0.5086 -0.0112
16522SOL    HW150760   4.214   6.243   5.759  0.3398  0.9134  1.5878
16522SOL    HW250761   4.187   6.391   5.767  0.3453  0.9950  0.3672
16523SOL     OW50762   5.779   4.399   1.217  0.2218 -0.3728  0.1773
16523SOL    HW150763   5.708   4.401   1.281 -0.6907  0.7388 -0.8047
16523SOL    HW250764   5.834   4.325   1.243  0.0730  0.2353  2.4080
16524SOL     OW50765   0.334   2.289   7.224 -0.2971  0.7012  0.0266
16524SOL    HW150766   0.307   2.240   7.301  1.0695 -1.7655 -0.9546
16524SOL    HW250767   0.265   2.274   7.159 -0.5366  1.2358  0.1496
16525SOL     OW50768   5.882   6.232   3.462 -0.2555 -0.2393 -0.2067
16525SOL    HW150769   5.875   6.166   3.530  0.7424 -0.5032 -0.3383
16525SOL    HW250770   5.792   6.249   3.434 -0.6396 -0.3752  0.9262
16526SOL     OW50771   6.522   3.706   6.748  0.0309 -0.6453  0.2819
16526SOL    HW150772   6.558   3.794   6.760 -0.2092 -0.7529  1.9049
16526SOL    HW250773   6.539   3.687   6.655  1.5483  0.4564  0.2820
16527SOL     OW50774   3.998   8.329   5.707 -0.5198  0.0270 -1.0087
16527SOL    HW150775   3.909   8.354   5.732 -0.2227 -0.9082  1.2060
16527SOL    HW250776   4.040   8.304   5.789  2.3385  1.9552 -1.7210
16528SOL     OW50777   0.963   3.449   2.590 -0.0364 -1.0861 -0.0388
16528SOL    HW150778   0.877   3.478   2.620 -0.4371 -1.9117 -0.3528
16528SOL    HW250779   1.017   3.528   2.590 -1.0901 -0.3373 -0.8621
16529SOL     OW50780   4.218   8.439   0.937  0.4136  0.5129  0.3205
16529SOL    HW150781   4.280   8.406   1.002  0.7043 -0.6957 -0.5473
16529SOL    HW250782   4.264   8.511   0.894  0.8506  0.2636  0.3618
16530SOL     OW50783   7.301   7.335   3.380 -0.1004 -0.4295  0.8049
16530SOL    HW150784   7.261   7.336   3.467  0.1105  0.7666  0.8964
16530SOL    HW250785   7.384   7.381   3.391 -0.0886 -0.2306 -0.0341
16531SOL     OW50786   6.758   1.996   6.893  0.3728 -0.2580 -0.6071
16531SOL    HW150787   6.825   1.928   6.886  0.1037 -0.6349  0.3969
16531SOL    HW250788   6.771   2.034   6.980 -0.8497 -0.4729 -0.3141
16532SOL     OW50789   2.163   4.229   8.581  0.0645 -0.2847  1.0583
16532SOL    HW150790   2.149   4.156   8.641 -0.2521 -0.4660  0.7730
16532SOL    HW250791   2.252   4.259   8.598 -0.0539 -0.2776  1.6751
16533SOL     OW50792   2.242   5.895   5.425 -0.0599 -0.6224 -0.1833
16533SOL    HW150793   2.281   5.922   5.342 -0.5304 -0.9557 -0.5169
16533SOL    HW250794   2.207   5.807   5.408  2.1714 -1.8479  1.0894
16534SOL     OW50795   6.045   5.326   0.519 -0.7626  0.1124  0.1994
16534SOL    HW150796   5.999   5.388   0.463 -1.5204 -1.8430 -1.4617
16534SOL    HW250797   5.980   5.260   0.540  0.0730 -0.2479  1.7566
16535SOL     OW50798   0.618   7.642   1.794  0.0408  0.0871 -0.5017
16535SOL    HW150799   0.536   7.691   1.800 -1.0043 -1.4500 -1.5445
16535SOL    HW250800   0.628   7.601   1.879 -1.3910 -1.3626 -0.9844
16536SOL     OW50801   6.021   3.659   2.994 -0.0761 -0.1670  0.0119
16536SOL    HW150802   6.043   3.624   2.908 -4.2996  0.5979 -1.6268
16536SOL    HW250803   5.930   3.634   3.008  0.1094  0.6420  3.8704
16537SOL     OW50804   4.643   7.658   7.607  0.1936  0.4059 -0.4846
16537SOL    HW150805   4.641   7.566   7.633  0.5521  0.3290 -0.7197
16537SOL    HW250806   4.680   7.657   7.519  0.0601  0.7619 -0.5441
16538SOL     OW50807   7.448   7.373   1.760 -0.3135 -0.2680  0.6948
16538SOL    HW150808   7.523   7.316   1.775 -1.0929 -0.9312  2.3955
16538SOL    HW250809   7.421   7.355   1.670  1.2300 -0.3845  0.2212
16539SOL     OW50810   4.018   6.399   8.276 -0.2884 -0.2906  0.1006
16539SOL    HW150811   4.007   6.434   8.188 -1.9869 -0.6026  0.1565
16539SOL    HW250812   4.032   6.476   8.331 -2.7152  0.2699  0.0329
16540SOL     OW50813   7.186   1.720   1.194 -0.5452 -0.0246  0.0306
16540SOL    HW150814   7.221   1.806   1.172 -0.9300 -0.6268 -3.6412
16540SOL    HW250815   7.150   1.731   1.282 -4.3566  4.9191 -1.6430
16541SOL     OW50816   2.411   6.394   6.513 -0.1330 -0.7515 -0.3810
16541SOL    HW150817   2.345   6.439   6.460  0.2758 -1.3586 -1.4248
16541SOL    HW250818   2.361   6.340   6.574 -0.6067 -0.4909 -0.5395
16542SOL     OW50819   4.109   7.383   1.528 -0.4376 -0.0729  0.8678
16542SOL    HW150820   4.043   7.315   1.536 -1.1669  0.4412 -0.5353
16542SOL    HW250821   4.131   7.405   1.619 -1.3514 -1.0387  1.3504
16543SOL     OW50822   4.562   4.513   8.430  0.5819  0.2136  0.0789
16543SOL    HW150823   4.575   4.468   8.514 -1.7914  0.3645  0.6009
16543SOL    HW250824   4.528   4.445   8.372 -0.1967  0.6498  0.0086
16544SOL     OW50825   1.580   6.498   7.459  0.0750 -0.5495 -0.4512
16544SOL    HW150826   1.494   6.538   7.476 -0.9175 -1.8913 -1.9363
16544SOL    HW250827   1.614   6.544   7.382 -0.6922 -1.8493 -1.6460
16545SOL     OW50828   7.242   7.663   4.903 -0.8254  0.2393  0.0800
16545SOL    HW150829   7.225   7.649   4.810 -1.2285  0.8647  0.0522
16545SOL    HW250830   7.160   7.701   4.937  0.2060  2.6099  0.1190
16546SOL     OW50831   3.143   2.131   8.307  0.2829 -0.0143  0.0179
16546SOL    HW150832   3.091   2.169   8.236 -0.7728 -1.5389 -0.0926
16546SOL    HW250833   3.083   2.126   8.381  0.1949 -1.8810 -0.1317
16547SOL     OW50834   2.492   0.845   8.330  0.0570 -0.3467  0.0291
16547SOL    HW150835   2.490   0.941   8.338 -1.9149 -0.3031 -0.5111
16547SOL    HW250836   2.408   0.822   8.290  0.1747 -2.3761  0.8164
16548SOL     OW50837   7.749   1.839   2.144 -0.2073  0.4075  0.0612
16548SOL    HW150838   7.781   1.750   2.158 -0.0884  0.3640 -0.4479
16548SOL    HW250839   7.757   1.881   2.229 -0.8132 -0.2382  0.4465
16549SOL     OW50840   4.694   4.368   1.472 -0.2187 -0.3886 -0.0533
16549SOL    HW150841   4.692   4.455   1.511 -0.1780 -1.0021  1.3489
16549SOL    HW250842   4.606   4.333   1.485 -0.1665 -0.6595 -0.4016
16550SOL     OW50843   4.548   1.368   5.474  0.1720  0.0104 -0.2191
16550SOL    HW150844   4.500   1.313   5.412 -0.2619  0.1198  0.0106
16550SOL    HW250845   4.496   1.448   5.480  2.4250  1.8656 -2.9943
16551SOL     OW50846   0.704   2.905   0.892  0.1541 -0.4653 -0.1593
16551SOL    HW150847   0.783   2.957   0.905 -0.1388  0.0326 -0.3289
16551SOL    HW250848   0.633   2.969   0.887 -0.1177 -0.8158 -1.1568
16552SOL     OW50849   5.792   7.480   5.656  0.1725 -0.4103 -0.3104
16552SOL    HW150850   5.822   7.568   5.635  0.9446 -0.9400 -1.5084
16552SOL    HW250851   5.698   7.482   5.637  0.1483  0.1999 -0.1596
16553SOL     OW50852   6.070   1.398   7.942 -0.5135 -0.1338  0.1478
16553SOL    HW150853   6.054   1.306   7.922 -0.1442 -0.3408  0.7782
16553SOL    HW250854   6.050   1.406   8.035  4.1281 -0.7319  1.4348
16554SOL     OW50855   4.091   8.463   0.343 -0.5587  0.3541  0.4478
16554SOL    HW150856   4.178   8.424   0.338  0.3088  2.3255 -1.4473
16554SOL    HW250857   4.105   8.549   0.382 -1.1779  1.6841 -2.0613
16555SOL     OW50858   4.206   5.720   0.381 -0.2076 -0.0250  0.3784
16555SOL    HW150859   4.245   5.633   0.395 -0.0743  0.3855  2.9554
16555SOL    HW250860   4.113   5.702   0.368  0.0962 -0.6599 -1.2167
16556SOL     OW50861   5.395   1.151   4.847  0.4061  0.4860  0.1323
16556SOL    HW150862   5.462   1.203   4.891  0.6581 -1.1149  1.7759
16556SOL    HW250863   5.331   1.132   4.915 -0.2964 -0.3219 -0.7276
16557SOL     OW50864   4.720   7.619   3.284  0.6107 -0.3765 -0.1808
16557SOL    HW150865   4.766   7.587   3.362  0.6806  1.3065  0.5077
16557SOL    HW250866   4.627   7.612   3.307  0.6317  0.1571  0.0899
16558SOL     OW50867   6.578   4.668   1.699  0.1700  0.6898 -0.4009
16558SOL    HW150868   6.484   4.655   1.712  0.3394  0.9633  1.3639
16558SOL    HW250869   6.584   4.744   1.642 -0.6752 -0.8441 -2.6810
16559SOL     OW50870   8.541   7.300   2.563  0.3010  0.6423 -0.5296
16559SOL    HW150871   8.595   7.221   2.554 -0.2050 -0.4252  3.7616
16559SOL    HW250872   8.601   7.367   2.593 -0.2405  0.0132  2.1952
16560SOL     OW50873   2.136   5.316   2.923  0.2087 -0.6348  0.6404
16560SOL    HW150874   2.075   5.333   2.851  2.0895  1.3779 -0.6544
16560SOL    HW250875   2.182   5.236   2.897  0.4395 -0.2634 -0.1412
16561SOL     OW50876   5.745   2.222   6.573 -0.3670 -0.4051 -0.4032
16561SOL    HW150877   5.652   2.235   6.590 -0.3489  0.8888 -1.1484
16561SOL    HW250878   5.786   2.303   6.603  0.5534 -1.0455  0.1068
16562SOL     OW50879   8.381   6.637   6.923 -0.0870 -0.1853 -0.6499
16562SOL    HW150880   8.388   6.731   6.907 -1.5419  0.1787  0.6535
16562SOL    HW250881   8.462   6.613   6.966  1.0210  0.1102 -2.4708
16563SOL     OW50882   0.346   0.388   5.694  0.6426 -0.5268  0.0365
16563SOL    HW150883   0.347   0.318   5.759  0.3089  0.0639  0.7009
16563SOL    HW250884   0.294   0.457   5.735  0.3006 -0.1966 -0.9243
16564SOL     OW50885   1.958   7.041   5.720  0.1159  0.5163 -0.6194
16564SOL    HW150886   1.877   7.022   5.768 -1.3792  1.2463 -2.6934
16564SOL    HW250887   1.953   7.134   5.700  1.3568  0.5136 -1.0199
16565SOL     OW50888   4.200   2.918   4.823 -0.0714  0.2536 -0.5164
16565SOL    HW150889   4.109   2.948   4.830 -0.1208 -0.0317  0.0525
16565SOL    HW250890   4.253   2.991   4.855 -0.2708 -0.9178  2.9003
16566SOL     OW50891   1.541   3.361   8.491  0.1488  0.2287 -0.6164
16566SOL    HW150892   1.514   3.403   8.409 -0.5659 -1.1394 -1.0998
16566SOL    HW250893   1.497   3.412   8.559 -1.3534 -0.1869 -1.2392
16567SOL     OW50894   2.830   0.387   1.994 -0.1213 -0.2658 -0.2297
16567SOL    HW150895   2.897   0.333   1.952  1.6659  2.4756 -1.1921
16567SOL    HW250896   2.871   0.473   2.002 -2.8755  1.0381  0.9844
16568SOL     OW50897   1.514   2.442   0.658 -0.3075 -0.2619  0.5351
16568SOL    HW150898   1.603   2.444   0.622 -1.8205 -0.7729 -3.7821
16568SOL    HW250899   1.474   2.524   0.629 -1.8791 -1.0559  0.3454
16569SOL     OW50900   2.285   7.749   4.184 -0.1563 -0.0099 -0.5129
16569SOL    HW150901   2.366   7.782   4.223 -0.5592  1.1333 -0.5916
16569SOL    HW250902   2.221   7.819   4.199 -1.1040 -0.8511 -0.5401
16570SOL     OW50903   1.423   4.958   4.974  0.0285  0.2438 -0.1795
16570SOL    HW150904   1.386   4.991   5.056 -0.4433  0.6890 -0.5622
16570SOL    HW250905   1.411   5.030   4.912 -3.2498 -1.4147 -1.7098
16571SOL     OW50906   6.952   5.653   2.960 -0.1177  0.1858  0.6472
16571SOL    HW150907   6.889   5.711   2.916 -0.3745  0.0586  0.8405
16571SOL    HW250908   7.006   5.711   3.013 -0.9389  0.1765  1.5259
16572SOL     OW50909   3.493   0.380   5.974  0.0032 -0.0146  0.4852
16572SOL    HW150910   3.577   0.415   6.004  0.0479  1.4007 -1.1420
16572SOL    HW250911   3.459   0.333   6.049  2.1215 -0.3905  1.2860
16573SOL     OW50912   1.074   6.448   0.010 -0.3188  0.2205 -0.6162
16573SOL    HW150913   1.063   6.504   0.087 -1.2271  1.5131 -1.6452
16573SOL    HW250914   1.165   6.419   0.015 -0.5126 -0.2215  1.2531
16574SOL     OW50915   1.276   2.869   4.989 -0.1216 -0.0364  0.2108
16574SOL    HW150916   1.182   2.874   5.006 -0.1073  1.0278  0.0173
16574SOL    HW250917   1.282   2.825   4.904 -0.5104  0.9811 -0.3561
16575SOL     OW50918   1.814   1.874   6.689 -0.4869 -0.5939 -0.2409
16575SOL    HW150919   1.805   1.915   6.775 -0.0736 -1.2392  0.1204
16575SOL    HW250920   1.903   1.839   6.688  0.5528  1.8747 -2.0332
16576SOL     OW50921   6.518   2.504   2.959  0.0553  0.1803  0.0661
16576SOL    HW150922   6.472   2.529   2.878  0.2973 -1.6719 -0.6851
16576SOL    HW250923   6.451   2.511   3.027 -0.8595 -0.6552 -0.7084
16577SOL     OW50924   2.056   8.124   4.884 -0.6760  0.3911  0.5051
16577SOL    HW150925   2.087   8.173   4.807  1.9945  0.5131  1.5598
16577SOL    HW250926   2.059   8.033   4.856  3.6286  0.0669  1.2959
16578SOL     OW50927   7.835   8.126   0.544  0.1334  0.1619  0.9045
16578SOL    HW150928   7.791   8.204   0.511 -1.1921 -1.2463 -0.9088
16578SOL    HW250929   7.909   8.114   0.484  0.3103  0.0036  1.1547
16579SOL     OW50930   5.788   4.413   2.226  0.3199  0.2080 -0.4798
16579SOL    HW150931   5.741   4.350   2.171  1.9857 -0.9970 -0.5846
16579SOL    HW250932   5.725   4.438   2.293 -0.9016 -0.3238 -1.3953
16580SOL     OW50933   8.383   4.121   5.888 -0.2457  0.3548  0.3021
16580SOL    HW150934   8.435   4.152   5.961 -1.1582 -0.6906  1.4390
16580SOL    HW250935   8.293   4.118   5.922 -0.6347 -0.4780 -0.7489
16581SOL     OW50936   0.210   7.226   4.371  0.7790  0.2040  0.8566
16581SOL    HW150937   0.183   7.227   4.463 -1.2335  0.9976  0.3041
16581SOL    HW250938   0.201   7.317   4.342  1.4599 -0.0188 -0.1128
16582SOL     OW50939   4.014   0.416   1.568 -0.3493  0.4190  0.9398
16582SOL    HW150940   4.061   0.333   1.559 -0.2621  0.4274  1.2835
16582SOL    HW250941   4.022   0.457   1.482  0.0880  0.3218  0.9269
16583SOL     OW50942   5.097   4.839   2.861  0.1253  0.0982 -0.0629
16583SOL    HW150943   5.013   4.857   2.903  0.3095  0.3568  0.2013
16583SOL    HW250944   5.082   4.856   2.768  0.1173  1.0127  0.0942
16584SOL     OW50945   3.673   1.033   6.260  0.1471 -0.9379  0.8159
16584SOL    HW150946   3.614   1.109   6.263  1.6388  0.2462  2.1572
16584SOL    HW250947   3.622   0.965   6.216 -1.0466  1.0087 -1.0400
16585SOL     OW50948   5.899   4.297   0.175  0.2825 -0.2066 -0.7439
16585SOL    HW150949   5.828   4.350   0.210 -0.7469 -2.3790  0.6631
16585SOL    HW250950   5.975   4.319   0.229 -0.0169  0.1183 -0.4592
16586SOL     OW50951   3.890   5.826   3.919 -0.2050  0.2381 -0.7768
16586SOL    HW150952   3.921   5.901   3.868  0.0101  0.2123 -0.6829
16586SOL    HW250953   3.962   5.763   3.915 -0.3771  0.0438 -0.8393
16587SOL     OW50954   5.446   1.878   1.756 -0.1020  0.1201  0.3118
16587SOL    HW150955   5.386   1.893   1.830  0.3754  0.4433  0.6362
16587SOL    HW250956   5.398   1.817   1.699 -0.1775 -0.7424  1.2531
16588SOL     OW50957   1.524   4.582   2.961 -0.1349 -0.4006 -0.3580
16588SOL    HW150958   1.486   4.620   2.882  3.5157  3.6473 -0.5594
16588SOL    HW250959   1.592   4.524   2.930 -0.5833 -1.0707 -0.1069
16589SOL     OW50960   1.435   6.192   4.380  0.0627  0.0490 -0.3877
16589SOL    HW150961   1.468   6.267   4.429  1.3626 -0.8476  0.1525
16589SOL    HW250962   1.507   6.165   4.324 -0.6909 -0.2551 -1.2382
16590SOL     OW50963   2.363   5.051   5.953  0.6420 -0.8108  0.3307
16590SOL    HW150964   2.406   5.119   6.005 -0.7323  0.7249 -0.4212
16590SOL    HW250965   2.271   5.054   5.981  0.7632 -3.3866  1.2944
16591SOL     OW50966   5.390   0.037   1.830  0.3283 -0.3008 -0.3801
16591SOL    HW150967   5.468  -0.008   1.797  0.5427  1.1038 -1.9075
16591SOL    HW250968   5.379   0.112   1.772 -1.1288  0.5516  0.9181
16592SOL     OW50969   5.019   5.545   2.587 -0.2219 -0.4540  0.0019
16592SOL    HW150970   5.074   5.533   2.664  0.6768 -0.5655 -0.6370
16592SOL    HW250971   4.990   5.636   2.591 -1.6322 -0.9267  1.3849
16593SOL     OW50972   1.956   2.652   1.009 -0.9789  0.6480  0.3448
16593SOL    HW150973   1.935   2.695   0.926  1.7107  1.5442  0.0040
16593SOL    HW250974   2.034   2.601   0.989 -2.2876 -1.9621  1.5468
16594SOL     OW50975   2.358   4.564   7.853  0.5027  0.0090 -0.9357
16594SOL    HW150976   2.319   4.487   7.814  0.1663 -0.3341  0.0508
16594SOL    HW250977   2.391   4.534   7.938  1.7115  0.6022 -1.1840
16595SOL     OW50978   8.080   0.260   3.619  0.1544  0.4879 -0.3397
16595SOL    HW150979   8.176   0.255   3.618  0.0951 -1.8843 -0.1437
16595SOL    HW250980   8.054   0.233   3.531 -0.3613  3.2165 -1.1200
16596SOL     OW50981   3.487   4.841   1.299 -0.8441  0.4457 -0.3259
16596SOL    HW150982   3.566   4.892   1.314 -0.1619  0.0808 -2.3036
16596SOL    HW250983   3.454   4.873   1.215 -1.0231 -1.5299 -1.0657
16597SOL     OW50984   4.848   1.268   6.008 -0.2503  0.0069  0.0701
16597SOL    HW150985   4.858   1.273   6.103  0.4129 -0.8455  0.0634
16597SOL    HW250986   4.755   1.284   5.992 -0.2529  0.7509  0.8119
16598SOL     OW50987   0.601   4.482   6.811 -0.6298  0.0898 -0.6252
16598SOL    HW150988   0.537   4.553   6.811  0.7253  1.3931  0.2191
16598SOL    HW250989   0.551   4.403   6.829 -1.8996  1.1701  0.8115
16599SOL     OW50990   0.196   4.228   6.413  0.1894  0.1812 -0.1279
16599SOL    HW150991   0.227   4.245   6.502 -0.1362 -1.0689  0.2385
16599SOL    HW250992   0.128   4.294   6.399  1.1943  1.2908  0.0077
16600SOL     OW50993   2.889   0.384   4.484 -0.1058  0.1606 -0.4758
16600SOL    HW150994   2.797   0.360   4.472 -0.3340  1.5762 -1.7983
16600SOL    HW250995   2.888   0.456   4.546  0.2144 -0.4550  0.2594
16601SOL     OW50996   6.177   4.725   4.591  0.0084  0.0561 -0.2542
16601SOL    HW150997   6.139   4.741   4.678  1.2041 -1.7579  0.6619
16601SOL    HW250998   6.130   4.649   4.557 -0.1136  0.4549 -1.0060
16602SOL     OW50999   2.600   5.934   6.461  0.6379  0.1028 -0.1370
16602SOL    HW151000   2.667   5.921   6.394  0.0196  1.0232 -0.9708
16602SOL    HW251001   2.554   6.014   6.434  1.0424  1.1233  1.9565
16603SOL     OW51002   6.097   1.442   1.952 -0.0454 -0.1060  0.1859
16603SOL    HW151003   6.159   1.405   2.015 -1.1258 -0.6242  0.9772
16603SOL    HW251004   6.145   1.514   1.911  0.8770 -0.1103  1.2025
16604SOL     OW51005   8.116   5.149   6.031 -0.3132  0.1670 -0.2115
16604SOL    HW151006   8.139   5.237   6.001  1.7595 -0.7695 -1.6648
16604SOL    HW251007   8.178   5.132   6.103 -0.2441 -0.3560 -0.3933
16605SOL     OW51008   3.843   7.537   5.078  0.4216 -0.4172 -0.3161
16605SOL    HW151009   3.904   7.563   5.010  0.8910  2.5060  1.1027
16605SOL    HW251010   3.756   7.549   5.038  0.7082 -0.0879 -0.8506
16606SOL     OW51011   4.751   7.542   3.566  0.0754 -0.4103 -0.2009
16606SOL    HW151012   4.788   7.485   3.633  0.6672  0.3662  0.1460
16606SOL    HW251013   4.711   7.614   3.615 -1.1022 -0.7578 -0.6092
16607SOL     OW51014   2.394   8.595   0.179  0.0699  0.3524 -0.3589
16607SOL    HW151015   2.456   8.543   0.230 -1.1781 -1.1251 -0.2710
16607SOL    HW251016   2.320   8.610   0.239 -0.4100  0.6044 -0.9967
16608SOL     OW51017   5.510   1.064   7.306 -0.9151  0.3545 -0.1699
16608SOL    HW151018   5.563   1.074   7.385  0.0858 -1.8957 -0.4737
16608SOL    HW251019   5.421   1.051   7.338 -1.0150  2.2512  0.4281
16609SOL     OW51020   2.210   6.690   5.722  0.1629 -0.2625  0.3178
16609SOL    HW151021   2.214   6.786   5.718  0.4940 -0.2587  0.7380
16609SOL    HW251022   2.300   6.662   5.709 -0.1533 -0.5859 -1.4406
16610SOL     OW51023   6.714   5.774   0.262  0.1375  0.1641 -0.0200
16610SOL    HW151024   6.750   5.717   0.330 -1.5404 -0.1198  0.6719
16610SOL    HW251025   6.764   5.855   0.271  0.7340 -0.2742  0.7736
16611SOL     OW51026   4.630   3.688   2.269  0.2028  0.3442  0.4232
16611SOL    HW151027   4.613   3.596   2.245  0.5166  0.5780 -0.8005
16611SOL    HW251028   4.622   3.690   2.364  0.2208 -0.9634  0.4762
16612SOL     OW51029   6.549   5.595   6.031 -0.3914  0.0900 -0.1248
16612SOL    HW151030   6.591   5.520   6.075 -1.1835 -1.2416 -1.5158
16612SOL    HW251031   6.540   5.661   6.099 -1.3486 -1.7711  1.6930
16613SOL     OW51032   5.242   6.228   4.636  0.3681 -0.4181 -0.0669
16613SOL    HW151033   5.186   6.224   4.714 -0.7059  0.2009 -0.7768
16613SOL    HW251034   5.244   6.321   4.613 -0.0198 -0.6917 -1.2509
16614SOL     OW51035   7.798   5.824   5.513 -0.6964 -0.0347 -0.0504
16614SOL    HW151036   7.732   5.890   5.493  0.0708  0.4686 -1.0126
16614SOL    HW251037   7.747   5.745   5.536 -1.6162  0.5724  0.0485
16615SOL     OW51038   5.077   2.994   0.561  0.4644  0.1210 -0.0788
16615SOL    HW151039   5.068   2.898   0.565  0.5140  0.0841 -0.7931
16615SOL    HW251040   5.150   3.009   0.502  1.4911  0.5750  1.2557
16616SOL     OW51041   2.365   6.727   0.883  0.3334  0.1239 -0.2655
16616SOL    HW151042   2.372   6.633   0.869 -1.0745  0.1259 -1.1861
16616SOL    HW251043   2.324   6.735   0.969  0.4730 -0.1116 -0.1771
16617SOL     OW51044   6.366   4.476   4.591  0.0471  0.7988 -0.3645
16617SOL    HW151045   6.371   4.524   4.673 -0.7656  2.5845 -1.3023
16617SOL    HW251046   6.276   4.443   4.588 -0.0453  1.0723 -0.6962
16618SOL     OW51047   7.307   7.465   4.026 -0.2679  0.1448  0.0864
16618SOL    HW151048   7.353   7.545   4.002 -1.0873  0.4222 -0.6108
16618SOL    HW251049   7.354   7.395   3.981  0.2199  0.2817  0.3857
16619SOL     OW51050   4.552   2.756   8.125  0.2455 -0.3964  0.3861
16619SOL    HW151051   4.508   2.831   8.164  0.1545  0.3591 -1.0879
16619SOL    HW251052   4.611   2.794   8.059 -0.0819 -1.6169 -0.6583
16620SOL     OW51053   7.494   1.599   3.630 -0.0559  0.0706  0.3867
16620SOL    HW151054   7.422   1.561   3.579 -1.5047  1.2137  1.5067
16620SOL    HW251055   7.507   1.686   3.591  0.2569  0.1354  0.6328
16621SOL     OW51056   3.930   2.736   3.600  0.3121  0.4674 -0.0233
16621SOL    HW151057   3.860   2.697   3.652 -1.3219  1.0576 -1.6653
16621SOL    HW251058   3.951   2.670   3.535  2.1200 -0.1429  1.1167
16622SOL     OW51059   6.374   6.069   5.299 -0.1529 -0.1418 -0.3683
16622SOL    HW151060   6.330   6.023   5.371  1.6929  0.3014  1.1164
16622SOL    HW251061   6.355   6.016   5.222 -0.9599 -1.4667  0.6930
16623SOL     OW51062   3.605   0.666   4.692 -0.2758  0.2735 -0.0134
16623SOL    HW151063   3.555   0.697   4.616  1.2926  0.0792 -1.1656
16623SOL    HW251064   3.670   0.606   4.656  1.1304  0.8825  1.3621
16624SOL     OW51065   8.543   3.407   1.144 -0.0278 -0.0505 -0.6331
16624SOL    HW151066   8.530   3.315   1.166  1.1742  0.2335  1.5169
16624SOL    HW251067   8.597   3.441   1.215  2.4452  1.5324 -3.0853
16625SOL     OW51068   1.561   2.765   2.216  0.3345 -0.3779 -0.0513
16625SOL    HW151069   1.633   2.828   2.217  0.8638 -0.9454  2.1380
16625SOL    HW251070   1.527   2.765   2.305 -1.0126 -1.6706 -0.5226
16626SOL     OW51071   6.164   6.812   4.160 -0.1274  0.4749 -0.2518
16626SOL    HW151072   6.245   6.862   4.171  0.5633 -0.3676 -1.1807
16626SOL    HW251073   6.162   6.793   4.066  0.0263 -1.7952  0.1500
16627SOL     OW51074   7.674   6.170   4.096  0.6905 -0.5699 -0.0198
16627SOL    HW151075   7.683   6.078   4.118 -3.6044 -1.0222  0.7791
16627SOL    HW251076   7.656   6.213   4.180 -1.5560  0.1625 -0.7928
16628SOL     OW51077   6.685   2.496   7.762 -0.2137  0.8293 -0.4495
16628SOL    HW151078   6.658   2.494   7.853 -0.5305 -0.3800 -0.5473
16628SOL    HW251079   6.724   2.409   7.746  1.3001  1.5705 -1.0375
16629SOL     OW51080   0.955   5.556   1.619  0.1101 -0.2814 -0.3876
16629SOL    HW151081   1.008   5.496   1.672  0.4794  1.1242  0.8915
16629SOL    HW251082   1.019   5.609   1.571 -0.2023 -0.5450 -1.1069
16630SOL     OW51083   8.395   5.832   3.797 -0.1653  0.0718 -0.0386
16630SOL    HW151084   8.427   5.777   3.725  0.7823 -0.0315  0.4559
16630SOL    HW251085   8.386   5.919   3.758 -1.5505 -0.3624 -0.7938
16631SOL     OW51086   2.043   8.441   0.481  0.1235 -0.6589  0.7946
16631SOL    HW151087   2.063   8.396   0.563 -0.8440 -1.1693  0.7603
16631SOL    HW251088   2.114   8.418   0.422  0.0992 -1.4199  1.0603
16632SOL     OW51089   1.420   7.716   4.451  0.0398  0.3412 -0.4798
16632SOL    HW151090   1.427   7.804   4.415  1.7801  0.7334  0.7075
16632SOL    HW251091   1.457   7.722   4.539 -0.0108 -1.5323 -0.2772
16633SOL     OW51092   7.823   1.285   6.352 -0.1217 -0.1993  0.0410
16633SOL    HW151093   7.863   1.370   6.371 -0.3577 -0.2504  0.8009
16633SOL    HW251094   7.882   1.244   6.289  0.8077 -0.0918  0.8210
16634SOL     OW51095   4.303   0.524   2.044 -0.1387 -0.7695  0.0894
16634SOL    HW151096   4.230   0.495   1.989 -0.3850  0.1116 -0.0593
16634SOL    HW251097   4.293   0.619   2.049  0.7308 -0.6896  0.4538
16635SOL     OW51098   5.699   1.195   6.353  0.2285 -0.1181 -0.8238
16635SOL    HW151099   5.615   1.191   6.400  0.6658 -0.6252 -0.0663
16635SOL    HW251100   5.682   1.255   6.280 -0.2798  1.2730  0.3799
16636SOL     OW51101   7.453   3.258   5.196  0.4932 -0.3677 -0.3627
16636SOL    HW151102   7.527   3.278   5.140  0.9896 -0.4120  0.2607
16636SOL    HW251103   7.468   3.169   5.226  0.4640 -0.2018  0.1686
16637SOL     OW51104   6.880   6.730   0.515 -0.4338 -0.7185 -0.1670
16637SOL    HW151105   6.940   6.658   0.535  0.0261 -0.1663  0.4435
16637SOL    HW251106   6.855   6.714   0.424 -0.7434 -1.9421  0.1048
16638SOL     OW51107   0.025   1.470   2.656  0.3339 -0.0231  0.0391
16638SOL    HW151108   0.111   1.507   2.634  1.9735 -2.6671  1.4674
16638SOL    HW251109   0.043   1.409   2.727 -2.2026 -2.9420 -1.5775
16639SOL     OW51110   8.004   3.249   7.550  0.1729  0.0356  0.0985
16639SOL    HW151111   8.044   3.237   7.636  1.1058  0.3339 -0.2707
16639SOL    HW251112   7.957   3.168   7.534 -0.8570  0.3635  1.3067
16640SOL     OW51113   1.497   6.770   2.746  0.3561  0.0301  0.0544
16640SOL    HW151114   1.404   6.780   2.726  0.6850  1.4970 -0.8912
16640SOL    HW251115   1.499   6.738   2.836 -1.0381  0.6841  0.3434
16641SOL     OW51116   4.138   0.958   2.926 -0.0914 -0.3966  0.7116
16641SOL    HW151117   4.082   1.035   2.928  0.3962  0.1875 -2.6497
16641SOL    HW251118   4.221   0.988   2.964 -0.4223  0.2664  0.9176
16642SOL     OW51119   3.317   2.260   1.954  0.5296 -0.0896  0.4680
16642SOL    HW151120   3.233   2.298   1.928  0.4596 -0.7049 -0.2529
16642SOL    HW251121   3.296   2.169   1.973  1.1578 -0.4487 -0.4761
16643SOL     OW51122   6.725   7.661   3.438 -0.1882  0.0079  0.5930
16643SOL    HW151123   6.633   7.670   3.464 -0.0642  1.6434  0.6051
16643SOL    HW251124   6.722   7.643   3.344 -0.5186  1.2117  0.3590
16644SOL     OW51125   0.769   0.836   2.466  0.2756  0.2167  0.0255
16644SOL    HW151126   0.849   0.785   2.462 -0.3143 -0.7469  0.2414
16644SOL    HW251127   0.699   0.774   2.446 -0.4478  0.9758  0.1125
16645SOL     OW51128   8.109   8.066   8.435 -0.4539 -0.1687  0.3100
16645SOL    HW151129   8.153   8.150   8.439 -0.6481 -0.0952  0.8600
16645SOL    HW251130   8.077   8.050   8.523 -0.3644 -0.8487  0.2304
16646SOL     OW51131   8.276   6.782   0.583 -0.3005 -0.0665  0.2779
16646SOL    HW151132   8.231   6.845   0.527  0.0337  0.4918  0.6196
16646SOL    HW251133   8.339   6.739   0.526 -0.4430  0.0073  0.0666
16647SOL     OW51134   5.965   8.505   5.474 -0.0441  0.2888 -0.5123
16647SOL    HW151135   6.040   8.562   5.457 -0.7167  1.5083  0.3911
16647SOL    HW251136   5.908   8.516   5.398 -0.8017  1.9410  0.2405
16648SOL     OW51137   7.098   5.993   4.518 -0.1936  0.6674  0.5021
16648SOL    HW151138   7.095   6.068   4.459 -0.7247  0.5142  0.3368
16648SOL    HW251139   7.035   5.931   4.482  0.3859  0.0534  0.5199
16649SOL     OW51140   3.784   0.936   3.120 -0.0965  0.0483 -0.1894
16649SOL    HW151141   3.847   1.004   3.144  0.9401 -1.3301  1.2465
16649SOL    HW251142   3.771   0.886   3.201  0.6666 -2.6003 -1.5725
16650SOL     OW51143   6.666   1.850   0.052 -0.0819 -0.1536  0.4224
16650SOL    HW151144   6.744   1.905   0.058 -0.4263  0.5337 -0.9951
16650SOL    HW251145   6.687   1.773   0.104  1.4865  0.0963  0.2010
16651SOL     OW51146   5.247   1.159   0.113 -0.3801  0.6014  0.2462
16651SOL    HW151147   5.179   1.099   0.143  0.4948  0.3422  1.8246
16651SOL    HW251148   5.262   1.134   0.022 -1.7060  0.0255  0.1601
16652SOL     OW51149   6.357   0.582   2.802  0.1883  0.4578 -0.7252
16652SOL    HW151150   6.370   0.572   2.896 -1.7776 -0.8803 -0.5453
16652SOL    HW251151   6.440   0.554   2.763  1.6258  2.5666  0.6054
16653SOL     OW51152   8.532   8.595   5.947  0.0656 -0.4857 -0.8361
16653SOL    HW151153   8.493   8.640   5.872 -1.8709 -2.5366 -1.1488
16653SOL    HW251154   8.575   8.518   5.909  0.9819 -0.3863 -0.0436
16654SOL     OW51155   3.017   6.378   7.853 -0.1868 -0.0710  0.0290
16654SOL    HW151156   3.038   6.392   7.760 -0.6180 -0.2818 -0.1003
16654SOL    HW251157   3.076   6.438   7.899 -0.2508  0.3329 -0.4003
16655SOL     OW51158   6.848   4.033   5.913 -0.4214  0.1548  0.5593
16655SOL    HW151159   6.939   4.062   5.909 -0.6828  1.4140  2.5257
16655SOL    HW251160   6.797   4.111   5.891 -1.0864 -0.8189 -1.7111
16656SOL     OW51161   1.816   2.660   7.101 -0.2738 -0.5885  0.4148
16656SOL    HW151162   1.832   2.718   7.176  0.3731 -1.9171  1.3341
16656SOL    HW251163   1.727   2.681   7.073  0.3472  1.7020 -0.0532
16657SOL     OW51164   4.467   6.899   7.250 -0.3378 -0.7589  0.5384
16657SOL    HW151165   4.562   6.911   7.254 -0.2881 -1.1291  0.5847
16657SOL    HW251166   4.431   6.975   7.296 -0.1042 -0.1458 -0.2703
16658SOL     OW51167   1.653   7.149   8.224  0.1912 -0.4528 -0.1037
16658SOL    HW151168   1.748   7.153   8.212  0.2415 -0.1839  0.3781
16658SOL    HW251169   1.624   7.239   8.217 -0.0561 -0.5563 -0.4406
16659SOL     OW51170   7.937   2.025   4.416  0.4903 -0.2682  0.1319
16659SOL    HW151171   7.984   1.965   4.474  0.1804  0.4488  1.1529
16659SOL    HW251172   7.854   2.042   4.460 -1.8053 -3.1325 -2.5684
16660SOL     OW51173   0.917   8.289   3.006 -0.0544  0.2562  0.4691
16660SOL    HW151174   0.896   8.287   3.099 -2.6579 -2.8869 -0.0049
16660SOL    HW251175   0.843   8.336   2.966  0.3879  0.4471 -0.1447
16661SOL     OW51176   3.917   5.649   7.214 -0.8280 -0.0229  0.3649
16661SOL    HW151177   3.886   5.562   7.187 -1.2660  0.4515 -0.7294
16661SOL    HW251178   3.954   5.687   7.135 -0.3388  0.6639  0.9141
16662SOL     OW51179   5.229   3.679   2.390  0.1786 -0.6067 -0.0665
16662SOL    HW151180   5.141   3.713   2.377  0.0236 -1.1996 -0.6212
16662SOL    HW251181   5.246   3.625   2.313  0.7736 -1.0261  0.3460
16663SOL     OW51182   5.390   1.593   1.860 -0.1978  0.4912  0.4519
16663SOL    HW151183   5.358   1.670   1.906 -2.7067  0.0514 -0.3873
16663SOL    HW251184   5.424   1.535   1.928  0.2030  1.6343  1.2450
16664SOL     OW51185   4.606   4.311   2.774 -0.0204 -0.3339  0.2828
16664SOL    HW151186   4.538   4.261   2.729  0.9532 -0.3350 -1.2596
16664SOL    HW251187   4.560   4.387   2.810 -0.7325  0.0680 -1.3862
16665SOL     OW51188   7.095   4.961   1.419  0.4705 -0.2617  0.0560
16665SOL    HW151189   7.027   5.023   1.445  0.1120 -0.0119 -1.3689
16665SOL    HW251190   7.143   4.942   1.500 -0.6701  0.3188  0.8945
16666SOL     OW51191   0.986   5.987   3.904  0.0530  0.3683 -0.1960
16666SOL    HW151192   0.984   5.989   4.000  1.1765 -2.6845  0.0197
16666SOL    HW251193   1.076   6.010   3.881  0.4096 -1.0560 -0.3227
16667SOL     OW51194   3.543   5.940   0.298  0.2373 -0.2037  0.3744
16667SOL    HW151195   3.576   5.990   0.372 -0.8756 -0.5377  1.1083
16667SOL    HW251196   3.520   5.855   0.335 -0.5941 -0.2775 -0.2945
16668SOL     OW51197   3.760   3.497   3.160 -0.4864  0.3705  0.0136
16668SOL    HW151198   3.837   3.505   3.217 -0.4238 -0.1820  0.0111
16668SOL    HW251199   3.722   3.412   3.182 -1.4239  0.8750  0.4099
16669SOL     OW51200   6.654   3.052   5.125 -0.0933 -0.2276  0.6977
16669SOL    HW151201   6.648   3.131   5.072  1.0939  0.3144  1.3208
16669SOL    HW251202   6.631   2.981   5.065 -1.0247  0.5613  0.0907
16670SOL     OW51203   2.906   6.330   1.437  1.1739  0.1297 -0.1780
16670SOL    HW151204   2.934   6.244   1.405 -2.4975 -0.9123 -1.0370
16670SOL    HW251205   2.878   6.377   1.359 -1.2018  0.2939  0.6959
16671SOL     OW51206   3.983   3.877   7.763 -0.0355  0.3668  0.2951
16671SOL    HW151207   4.047   3.909   7.700 -0.1933  2.7383  1.2152
16671SOL    HW251208   4.031   3.872   7.845 -0.4432 -0.1759  0.5039
16672SOL     OW51209   8.566   2.365   8.450  0.4473  0.2310  0.0907
16672SOL    HW151210   8.492   2.382   8.509  1.6862  0.2215  1.7240
16672SOL    HW251211   8.609   2.450   8.440  1.6417 -0.2047  1.2175
16673SOL     OW51212   7.089   4.544   1.954  0.0963  0.3399  0.3269
16673SOL    HW151213   7.009   4.580   1.916 -0.1536  1.2086  1.6305
16673SOL    HW251214   7.148   4.619   1.962  1.5566 -0.4768 -1.7304
16674SOL     OW51215   4.189   5.374   7.729 -0.7208  0.4106 -0.3197
16674SOL    HW151216   4.198   5.326   7.811 -0.0370  0.8803 -0.1158
16674SOL    HW251217   4.208   5.465   7.753 -1.3414  0.6805 -0.8330
16675SOL     OW51218   6.124   4.055   5.863  0.2415  0.0851  0.1536
16675SOL    HW151219   6.047   4.021   5.909 -0.3789 -0.4662 -1.2194
16675SOL    HW251220   6.190   4.064   5.931 -0.6340 -0.6771  1.1542
16676SOL     OW51221   1.340   2.798   6.959  0.5470 -0.0606 -0.0016
16676SOL    HW151222   1.319   2.727   7.021  0.5769  0.1905  0.3017
16676SOL    HW251223   1.264   2.801   6.901  0.9246 -0.9113 -0.5551
16677SOL     OW51224   5.062   6.265   0.739  0.1672 -0.7950 -0.0350
16677SOL    HW151225   5.073   6.224   0.825  0.8277  0.1149  0.3316
16677SOL    HW251226   4.968   6.261   0.722 -0.6979  2.7562  2.6871
16678SOL     OW51227   8.336   6.041   4.918 -0.7072 -0.4697 -0.1817
16678SOL    HW151228   8.334   6.112   4.982  0.0351 -1.8274  1.4552
16678SOL    HW251229   8.245   6.027   4.894 -0.7672  1.8491 -1.5702
16679SOL     OW51230   2.269   0.046   3.142 -0.2819 -0.3793 -0.5837
16679SOL    HW151231   2.218   0.121   3.172 -1.1042 -1.6390  1.3221
16679SOL    HW251232   2.204  -0.023   3.128  0.6106 -1.1839 -0.8376
16680SOL     OW51233   2.909   7.150   0.522  0.6285 -0.3165 -0.4975
16680SOL    HW151234   2.894   7.109   0.437 -0.9362 -1.3751  0.2478
16680SOL    HW251235   2.922   7.078   0.582 -3.1069  0.0414  1.0217
16681SOL     OW51236   2.897   3.323   5.586  0.7775 -0.1178  0.5830
16681SOL    HW151237   2.982   3.297   5.621  1.0967 -0.9373 -0.7084
16681SOL    HW251238   2.898   3.291   5.496 -0.9983 -0.3457  0.6104
16682SOL     OW51239   1.738   3.676   2.340  0.2297 -0.2074  0.1473
16682SOL    HW151240   1.679   3.615   2.386  0.7527  0.7747  2.2579
16682SOL    HW251241   1.765   3.738   2.408  3.4466 -0.4234 -0.7739
16683SOL     OW51242   1.549   5.212   6.501 -0.4167 -0.2322 -0.1276
16683SOL    HW151243   1.567   5.248   6.588  1.2596 -1.4125  0.0752
16683SOL    HW251244   1.523   5.121   6.518 -0.3266 -0.3921 -0.8276
16684SOL     OW51245   2.678   3.139   3.376 -0.5466  0.0364  0.1569
16684SOL    HW151246   2.696   3.215   3.321 -0.2222 -0.8647 -1.0054
16684SOL    HW251247   2.735   3.070   3.342 -1.8438 -1.1443  0.2898
16685SOL     OW51248   0.210   4.607   7.824 -0.3175 -0.1691  0.3771
16685SOL    HW151249   0.218   4.687   7.772  1.6177 -0.3939  0.2410
16685SOL    HW251250   0.241   4.538   7.765 -0.1390 -0.7374  1.1245
16686SOL     OW51251   8.210   7.386   0.014  0.4734 -0.3456 -0.0080
16686SOL    HW151252   8.236   7.458  -0.044 -0.3620  0.3868  0.5035
16686SOL    HW251253   8.217   7.422   0.102 -0.7257 -0.6218  0.2198
16687SOL     OW51254   6.660   3.721   4.083 -0.1151  0.0648 -0.1521
16687SOL    HW151255   6.646   3.644   4.028  1.2080  0.0436 -0.4916
16687SOL    HW251256   6.574   3.740   4.120 -0.5997 -1.1609 -0.6012
16688SOL     OW51257   0.092   6.202   1.800 -0.0460  0.9613  0.1134
16688SOL    HW151258   0.030   6.260   1.843 -1.5241 -1.5675  1.6886
16688SOL    HW251259   0.043   6.162   1.728 -0.2686 -0.8032  1.1627
16689SOL     OW51260   4.567   0.604   0.445  0.1212  0.4788  0.9036
16689SOL    HW151261   4.544   0.514   0.420  3.1687 -0.5503  1.3186
16689SOL    HW251262   4.546   0.657   0.368  3.3736 -1.5756 -1.6842
16690SOL     OW51263   0.007   4.686   4.720  0.4662 -0.0052  0.0819
16690SOL    HW151264   0.036   4.708   4.809  0.9599 -1.6619  0.3510
16690SOL    HW251265   0.071   4.623   4.688  0.5107  0.8424 -1.6205
16691SOL     OW51266   8.421   7.538   0.743 -0.0162 -0.3528 -0.0609
16691SOL    HW151267   8.352   7.590   0.784  1.0359 -0.0033  1.3112
16691SOL    HW251268   8.401   7.448   0.767 -0.9209 -0.4570 -1.0909
16692SOL     OW51269   1.223   8.205   7.965 -0.0206 -0.0215  0.2546
16692SOL    HW151270   1.267   8.123   7.942 -0.0452  0.3276 -1.1275
16692SOL    HW251271   1.193   8.192   8.055 -0.6870 -1.8282 -0.1892
16693SOL     OW51272   2.576   0.321   8.498  0.6028 -0.4482 -0.5940
16693SOL    HW151273   2.546   0.232   8.514  1.8983 -1.0144 -1.1962
16693SOL    HW251274   2.648   0.312   8.436  1.7864  0.8744  0.5136
16694SOL     OW51275   4.879   4.469   0.967  0.0907  0.2969  0.4355
16694SOL    HW151276   4.825   4.546   0.954 -0.6889 -0.3512 -0.2746
16694SOL    HW251277   4.830   4.414   1.027  0.4417  0.1626  0.6032
16695SOL     OW51278   4.899   1.644   1.074  0.2277 -0.9344 -0.1911
16695SOL    HW151279   4.807   1.632   1.050 -0.5459 -0.1531  2.1650
16695SOL    HW251280   4.934   1.701   1.006 -1.2436 -0.5450 -0.6636
16696SOL     OW51281   2.790   7.631   5.688  0.5588  0.3731  0.0986
16696SOL    HW151282   2.797   7.623   5.783  2.7643  1.4240  0.0757
16696SOL    HW251283   2.797   7.542   5.655  0.0953  0.0361  0.8896
16697SOL     OW51284   7.196   6.772   1.771  0.2603  0.0084 -0.3866
16697SOL    HW151285   7.250   6.817   1.706  1.2127 -0.7561 -0.1480
16697SOL    HW251286   7.197   6.830   1.848  1.4101 -0.3551 -0.1083
16698SOL     OW51287   7.149   1.098   3.465  0.4080 -0.0682 -0.6457
16698SOL    HW151288   7.084   1.039   3.503 -0.1427  1.2081  0.4711
16698SOL    HW251289   7.119   1.186   3.489  2.2215  0.5869 -0.6126
16699SOL     OW51290   3.933   1.329   0.401 -0.2937 -0.6117  0.2949
16699SOL    HW151291   3.948   1.402   0.341 -2.9131 -0.8478 -0.7749
16699SOL    HW251292   3.966   1.360   0.486  0.8148  0.8629 -0.6330
16700SOL     OW51293   0.621   6.435   8.149 -0.2008  0.2757 -0.5416
16700SOL    HW151294   0.557   6.405   8.214  0.6921 -0.0854  0.1873
16700SOL    HW251295   0.576   6.505   8.101 -0.6767  0.9477  0.8464
16701SOL     OW51296   6.021   7.005   1.367 -0.2400 -0.2430 -0.2320
16701SOL    HW151297   5.944   6.950   1.361 -0.7006  0.4077 -0.3876
16701SOL    HW251298   6.005   7.062   1.442  0.7972 -1.1636  0.7304
16702SOL     OW51299   0.413   1.672   7.194  0.3927  0.4285  1.1650
16702SOL    HW151300   0.494   1.655   7.241  0.4962 -0.5070  0.6713
16702SOL    HW251301   0.440   1.686   7.104  0.1070  1.3368  1.2056
16703SOL     OW51302   7.502   7.329   6.207 -0.7668 -0.4063 -0.1680
16703SOL    HW151303   7.502   7.389   6.132  1.8126  0.0870  0.1377
16703SOL    HW251304   7.481   7.385   6.282 -0.5065 -0.3121 -0.1641
16704SOL     OW51305   2.724   0.885   4.459 -0.0264 -0.0608  0.6511
16704SOL    HW151306   2.817   0.878   4.437  0.1267  1.4552  0.7085
16704SOL    HW251307   2.713   0.976   4.488 -1.4756 -0.2902  0.8911
16705SOL     OW51308   1.947   2.372   7.584 -1.1513  0.4824 -0.4359
16705SOL    HW151309   2.039   2.350   7.568 -0.7065  1.5928  0.4821
16705SOL    HW251310   1.916   2.303   7.643 -1.2286 -0.4809 -1.5625
16706SOL     OW51311   7.168   1.580   5.857  0.1543  0.1295  0.6784
16706SOL    HW151312   7.241   1.534   5.900 -0.3901 -0.5529  0.8978
16706SOL    HW251313   7.191   1.672   5.863 -0.0988  0.0941  2.8217
16707SOL     OW51314   8.333   0.752   2.045 -0.7698 -0.1965  0.2504
16707SOL    HW151315   8.329   0.669   1.997 -2.1192 -0.0826  0.1187
16707SOL    HW251316   8.371   0.730   2.130  0.7730 -0.5721 -0.5090
16708SOL     OW51317   1.739   8.426   8.569 -0.2218  0.7180  0.5308
16708SOL    HW151318   1.791   8.410   8.648  0.7024  1.9627  0.2081
16708SOL    HW251319   1.804   8.433   8.499 -0.9072  1.1577 -0.0736
16709SOL     OW51320   7.371   1.030   3.841  0.1043  0.7117  0.2939
16709SOL    HW151321   7.413   1.095   3.786  0.4941  0.9996  0.9237
16709SOL    HW251322   7.422   1.030   3.922  0.9071 -1.2720 -0.1559
16710SOL     OW51323   2.015   6.378   0.767  0.2392 -0.0744  0.6904
16710SOL    HW151324   1.962   6.325   0.709 -0.7459  2.3998 -0.8143
16710SOL    HW251325   1.952   6.433   0.814  1.2897  0.8312  1.0835
16711SOL     OW51326   4.759   6.966   7.286 -0.0395  0.1163 -0.0514
16711SOL    HW151327   4.758   7.011   7.201  0.1055  0.0353 -0.0953
16711SOL    HW251328   4.813   7.021   7.342 -2.2198  1.5855  0.7528
16712SOL     OW51329   2.887   6.520   6.161  0.2529  0.3118  0.0263
16712SOL    HW151330   2.924   6.550   6.078 -0.7788  1.7700  0.0559
16712SOL    HW251331   2.795   6.545   6.157 -0.6246 -2.5298  0.2596
16713SOL     OW51332   7.189   1.309   6.914 -0.4729  0.1280 -0.5712
16713SOL    HW151333   7.272   1.265   6.893  1.4915  2.3661  1.8385
16713SOL    HW251334   7.140   1.244   6.964  0.1977 -0.9339 -1.2440
16714SOL     OW51335   5.221   2.332   5.094 -0.3657  0.1183  0.0741
16714SOL    HW151336   5.221   2.236   5.097  0.2503  0.1332  0.7815
16714SOL    HW251337   5.313   2.356   5.082 -0.3239  0.6466  1.2626
16715SOL     OW51338   0.728   2.150   5.042  0.1954  0.0619  0.3198
16715SOL    HW151339   0.736   2.111   4.955  2.1987 -1.5568  1.1463
16715SOL    HW251340   0.774   2.234   5.035  1.1644 -0.4769  0.0226
16716SOL     OW51341   2.394   3.961   8.454  0.2240  0.4422  0.2640
16716SOL    HW151342   2.400   3.865   8.460  0.1592  0.3507 -0.9098
16716SOL    HW251343   2.340   3.986   8.529  0.3904 -0.4213  0.6886
16717SOL     OW51344   3.890   2.103   0.082  0.0752  0.9125  0.1622
16717SOL    HW151345   3.827   2.156   0.034  0.7332 -0.5067 -2.4715
16717SOL    HW251346   3.864   2.013   0.063  2.7146  0.2767 -0.8782
16718SOL     OW51347   4.721   4.288   7.613  0.4223 -0.1995 -0.3092
16718SOL    HW151348   4.772   4.291   7.694  1.0300 -0.3320 -0.6802
16718SOL    HW251349   4.729   4.377   7.577 -1.0902  0.2986  0.5162
16719SOL     OW51350   6.756   3.105   2.177  0.2819 -0.2393  0.7231
16719SOL    HW151351   6.779   3.153   2.257 -0.1381  0.4429  0.4464
16719SOL    HW251352   6.665   3.128   2.161  0.4396 -0.1619 -0.1007
16720SOL     OW51353   4.732   2.015   7.746  0.0410 -0.1013  0.3640
16720SOL    HW151354   4.793   1.976   7.684 -0.0929 -1.9983  1.3627
16720SOL    HW251355   4.782   2.084   7.789  1.1006 -0.8126  0.2954
16721SOL     OW51356   0.343   0.498   3.394  0.2200  0.5378  0.5698
16721SOL    HW151357   0.437   0.517   3.394  0.5314 -0.8901  0.4943
16721SOL    HW251358   0.304   0.572   3.347  1.3436  0.9824  0.2900
16722SOL     OW51359   3.257   2.983   8.175 -0.3479  0.6262 -0.2898
16722SOL    HW151360   3.207   2.931   8.238 -2.1027  0.3723 -1.8009
16722SOL    HW251361   3.335   3.011   8.224 -0.6176 -1.2265  1.3544
16723SOL     OW51362   1.206   5.147   1.059  0.3532 -0.2984  0.2469
16723SOL    HW151363   1.172   5.136   1.148 -0.6495 -2.2025 -0.3308
16723SOL    HW251364   1.280   5.087   1.054 -1.1191 -2.1466 -0.9094
16724SOL     OW51365   5.894   2.651   1.702  0.5215  0.1665 -0.2918
16724SOL    HW151366   5.988   2.664   1.689  0.8237 -0.4980  1.0580
16724SOL    HW251367   5.883   2.556   1.706 -0.0692  0.2490  0.3684
16725SOL     OW51368   1.981   6.392   8.466  0.4364  0.5720  0.2415
16725SOL    HW151369   1.959   6.463   8.406 -0.6082  0.0309 -0.0431
16725SOL    HW251370   2.027   6.328   8.411 -0.6506  0.0096 -0.0399
16726SOL     OW51371   7.520   7.407   2.845  0.4285  0.2286  0.3077
16726SOL    HW151372   7.426   7.395   2.834  0.7302  0.1421 -4.4031
16726SOL    HW251373   7.550   7.325   2.884 -1.3003 -0.1555  0.9334
16727SOL     OW51374   3.962   1.782   3.223 -0.2811 -0.1786  0.2534
16727SOL    HW151375   3.939   1.692   3.202 -1.2260  0.1872 -0.3482
16727SOL    HW251376   4.028   1.807   3.157 -0.4818 -0.2299  0.0338
16728SOL     OW51377   6.014   1.407   7.137  0.9262 -0.1485 -0.4818
16728SOL    HW151378   5.994   1.439   7.049  1.5343  0.9202 -0.2492
16728SOL    HW251379   6.089   1.348   7.126  0.0985 -1.1649 -0.8501
16729SOL     OW51380   2.248   0.611   1.419  0.7268 -0.0677 -0.1126
16729SOL    HW151381   2.156   0.608   1.443  0.3667 -0.9394 -1.4680
16729SOL    HW251382   2.288   0.537   1.464  0.9775  0.8413  1.2016
16730SOL     OW51383   7.845   4.356   4.950 -0.3577 -0.0130 -0.3217
16730SOL    HW151384   7.797   4.347   4.867 -1.6997  1.0034  0.3096
16730SOL    HW251385   7.781   4.392   5.011  0.5971 -0.7759  1.1945
16731SOL     OW51386   0.911   3.105   1.484 -0.0748  0.5278  0.2285
16731SOL    HW151387   0.856   3.063   1.550  1.4697 -0.6527  0.7937
16731SOL    HW251388   0.888   3.061   1.402 -0.6982  0.7585  0.2718
16732SOL     OW51389   2.277   5.020   7.045  0.7963 -0.9202  0.3405
16732SOL    HW151390   2.298   5.044   6.955 -2.7196  1.6027  0.0054
16732SOL    HW251391   2.327   5.081   7.099 -1.5638  1.7418 -0.2558
16733SOL     OW51392   5.877   8.421   4.709 -0.4689 -0.1201 -0.8397
16733SOL    HW151393   5.819   8.350   4.734 -1.8955  0.4497 -2.3748
16733SOL    HW251394   5.825   8.475   4.649  1.2985  0.9962 -1.4458
16734SOL     OW51395   0.753   0.069   1.788 -0.2145 -0.6567 -0.0972
16734SOL    HW151396   0.817   0.123   1.834  0.9870 -1.6365 -0.5528
16734SOL    HW251397   0.762   0.093   1.696 -2.0527  0.7322  0.0521
16735SOL     OW51398   0.853   7.547   1.563  0.0394  0.5503 -0.5655
16735SOL    HW151399   0.790   7.496   1.614  0.4204  0.0525 -0.5832
16735SOL    HW251400   0.882   7.616   1.623  0.4876 -0.0335 -0.1053
16736SOL     OW51401   2.424   1.391   7.877  0.0205 -0.1189 -0.4166
16736SOL    HW151402   2.506   1.404   7.829  0.4436 -1.0603  0.0359
16736SOL    HW251403   2.421   1.463   7.940  0.4395 -0.0216 -0.5050
16737SOL     OW51404   6.594   4.323   2.110  0.3743 -0.2094  0.3083
16737SOL    HW151405   6.606   4.266   2.034  0.9958  0.2697  0.0441
16737SOL    HW251406   6.679   4.322   2.155 -0.2572 -1.2489  1.5341
16738SOL     OW51407   4.089   2.990   6.817  0.9632 -0.6836  0.1131
16738SOL    HW151408   4.166   2.997   6.874  1.9265  0.2051 -1.2314
16738SOL    HW251409   4.094   3.066   6.760 -1.1163 -0.4328  0.1796
16739SOL     OW51410   5.779   1.635   2.495  0.6184 -0.0043 -0.1048
16739SOL    HW151411   5.842   1.630   2.423  1.5683  2.1099  0.4988
16739SOL    HW251412   5.830   1.614   2.573 -0.0299 -0.6688  0.1567
16740SOL     OW51413   1.905   5.655   8.199  0.0813  0.5235 -0.3697
16740SOL    HW151414   1.975   5.598   8.169 -0.5249 -0.7602  0.5475
16740SOL    HW251415   1.943   5.743   8.197  0.8396  0.2022 -2.4182
16741SOL     OW51416   4.057   1.312   6.590 -0.8974  0.3759  0.0601
16741SOL    HW151417   4.011   1.285   6.511 -0.2510 -0.5771 -0.0032
16741SOL    HW251418   4.136   1.259   6.592 -0.8849  0.4025  1.3372
16742SOL     OW51419   8.185   3.079   5.565 -0.3174 -0.0641 -0.0486
16742SOL    HW151420   8.273   3.073   5.528  0.0742 -0.4727  0.9047
16742SOL    HW251421   8.151   2.990   5.560  0.3849 -0.5205  2.0148
16743SOL     OW51422   1.319   0.911   5.040  0.4207  0.4248  0.0462
16743SOL    HW151423   1.355   0.995   5.068  0.0613  0.8461 -0.7356
16743SOL    HW251424   1.285   0.872   5.120  1.0852  0.7722  0.5118
16744SOL     OW51425   3.399   2.453   5.441  0.1952  0.0797 -0.2191
16744SOL    HW151426   3.402   2.365   5.403  0.4084  0.4960 -1.2052
16744SOL    HW251427   3.306   2.469   5.456 -0.0298  0.3672 -1.7433
16745SOL     OW51428   4.941   4.646   7.930  0.1225  0.1264 -0.4458
16745SOL    HW151429   4.886   4.692   7.993 -0.8360  0.7200 -1.6740
16745SOL    HW251430   4.999   4.713   7.895  1.0190 -0.3116  0.1788
16746SOL     OW51431   5.844   6.237   8.599  0.0108  0.3002 -0.0459
16746SOL    HW151432   5.858   6.148   8.632 -0.0205  0.3739  0.1680
16746SOL    HW251433   5.901   6.292   8.653 -0.4315  0.4882  0.2337
16747SOL     OW51434   1.317   2.474   2.766 -0.7157 -0.3545 -0.9228
16747SOL    HW151435   1.221   2.475   2.769 -0.7973 -1.0434 -2.4491
16747SOL    HW251436   1.341   2.566   2.755 -1.2350 -0.2324 -1.0912
16748SOL     OW51437   5.784   5.649   6.219 -0.7504  0.5580 -0.5170
16748SOL    HW151438   5.779   5.696   6.302 -0.0179  1.7089 -1.0900
16748SOL    HW251439   5.854   5.693   6.171  0.8415 -1.9097 -0.6359
16749SOL     OW51440   3.484   3.137   0.337 -0.0134 -0.0893  0.1018
16749SOL    HW151441   3.389   3.143   0.335 -0.0237  0.6574  1.5109
16749SOL    HW251442   3.507   3.092   0.256 -1.5213  0.1890 -0.5148
16750SOL     OW51443   3.587   5.906   6.234 -0.1071  0.0611  0.1716
16750SOL    HW151444   3.546   5.993   6.235 -0.3580  0.1184 -3.4127
16750SOL    HW251445   3.679   5.923   6.214  0.0938 -0.4857  0.5852
16751SOL     OW51446   3.010   7.737   1.290 -0.7563  0.0687 -0.2003
16751SOL    HW151447   2.965   7.705   1.368  1.1068  0.3232  1.0539
16751SOL    HW251448   3.001   7.666   1.226 -1.3574 -0.6248  0.6340
16752SOL     OW51449   1.961   8.447   0.174 -0.1385  0.0931 -0.5894
16752SOL    HW151450   1.969   8.425   0.267 -0.3580 -1.8826 -0.9958
16752SOL    HW251451   2.050   8.438   0.140  0.1905  2.0709 -0.3643
16753SOL     OW51452   7.044   2.336   0.815 -0.4801 -0.9549 -0.0712
16753SOL    HW151453   7.007   2.265   0.868 -1.5983 -0.4489 -0.1521
16753SOL    HW251454   7.087   2.292   0.742 -0.3584 -1.5841  0.3709
16754SOL     OW51455   4.045   8.478   4.651  0.4363  0.7100 -0.0183
16754SOL    HW151456   4.040   8.516   4.563 -1.0607 -0.5507 -0.5188
16754SOL    HW251457   3.959   8.439   4.665  1.7147 -2.1097  0.6361
16755SOL     OW51458   2.956   2.442   8.375  0.4404 -0.2366  0.1029
16755SOL    HW151459   2.984   2.410   8.461  1.9988  1.2937  0.2152
16755SOL    HW251460   2.860   2.441   8.380  0.4694 -2.0002  1.1298
16756SOL     OW51461   8.502   8.388   1.990 -0.0948  0.3974 -0.3149
16756SOL    HW151462   8.554   8.308   1.989 -0.8584 -0.1199 -2.0888
16756SOL    HW251463   8.444   8.377   2.066  0.3737 -0.3437 -0.0494
16757SOL     OW51464   0.844   8.320   6.773  0.7780 -0.1708 -0.2240
16757SOL    HW151465   0.812   8.360   6.854 -1.9289  1.5755 -2.0026
16757SOL    HW251466   0.803   8.234   6.771  1.5650 -0.5971  0.5878
16758SOL     OW51467   6.776   0.801   2.307 -0.0036 -0.4097  0.0846
16758SOL    HW151468   6.739   0.737   2.246  0.1745 -0.6099  0.1825
16758SOL    HW251469   6.856   0.831   2.265  0.2888 -0.7872  0.3605
16759SOL     OW51470   4.898   2.439   4.834 -0.1118  0.3026  0.4836
16759SOL    HW151471   4.881   2.420   4.742 -1.5817  0.3789  0.7135
16759SOL    HW251472   4.931   2.529   4.834  1.4302 -0.2355 -0.0913
16760SOL     OW51473   3.413   1.555   1.533 -0.5908 -0.0594  0.1643
16760SOL    HW151474   3.323   1.585   1.521 -0.6586  0.1359  1.0571
16760SOL    HW251475   3.413   1.516   1.621 -0.3373 -2.0279 -0.6501
16761SOL     OW51476   5.291   3.845   4.808 -0.6017 -0.1858 -0.4499
16761SOL    HW151477   5.252   3.766   4.844 -1.1692 -0.8751 -2.4059
16761SOL    HW251478   5.376   3.815   4.774 -1.0674 -0.1341 -1.7226
16762SOL     OW51479   2.141   3.390   6.754 -0.1898  0.0972 -0.1210
16762SOL    HW151480   2.190   3.464   6.717 -0.6257  0.8718  0.8051
16762SOL    HW251481   2.063   3.430   6.791 -0.3560 -0.8205  0.5305
16763SOL     OW51482   3.003   5.137   6.919  0.4154 -0.1547 -0.0850
16763SOL    HW151483   3.097   5.144   6.898  0.5546  0.8720  0.7749
16763SOL    HW251484   2.960   5.185   6.849  0.5755 -0.1479 -0.1810
16764SOL     OW51485   6.896   4.315   4.485 -0.0653  0.1001 -0.2423
16764SOL    HW151486   6.840   4.318   4.408  0.1408 -2.1200 -0.5279
16764SOL    HW251487   6.911   4.222   4.501  0.3840  0.5125  2.1404
16765SOL     OW51488   0.145   0.160   0.050 -0.1993 -0.4126  0.1041
16765SOL    HW151489   0.103   0.120   0.125  1.4058 -1.2954  0.5920
16765SOL    HW251490   0.238   0.141   0.062 -0.0232 -2.2588 -3.0503
16766SOL     OW51491   6.717   2.680   6.195  0.7523 -0.1541  0.1146
16766SOL    HW151492   6.708   2.651   6.285 -1.2285 -0.8421 -0.2437
16766SOL    HW251493   6.628   2.674   6.159  1.2767  1.1973 -1.5539
16767SOL     OW51494   4.926   6.043   5.047 -0.0492 -0.4541 -0.2543
16767SOL    HW151495   4.841   6.006   5.072 -0.4876  0.5500 -0.1902
16767SOL    HW251496   4.979   6.038   5.126 -0.5494  0.2811  0.1349
16768SOL     OW51497   4.388   2.678   6.994  0.1692 -0.1726 -0.1876
16768SOL    HW151498   4.324   2.724   7.049  1.1040 -0.1536  0.9188
16768SOL    HW251499   4.393   2.730   6.914 -0.5012  0.3537  0.1062
16769SOL     OW51500   7.544   0.920   8.010 -0.4280 -0.0304 -0.3881
16769SOL    HW151501   7.613   0.860   8.037 -1.3817 -1.0598 -0.1399
16769SOL    HW251502   7.589   0.988   7.960  0.8412 -0.2798  0.3715
16770SOL     OW51503   6.301   7.882   2.378  0.0020  0.4799 -0.0921
16770SOL    HW151504   6.373   7.873   2.316 -0.9430  1.0790 -1.3136
16770SOL    HW251505   6.340   7.927   2.453  0.6953  1.6583 -1.1177
16771SOL     OW51506   7.977   1.204   6.145 -0.7593 -0.0159  0.5032
16771SOL    HW151507   8.060   1.228   6.103 -0.1827  0.7561  1.9847
16771SOL    HW251508   7.944   1.130   6.094  0.1508  0.5348 -0.9440
16772SOL     OW51509   4.075   2.211   2.324 -0.5815 -0.3972  0.2332
16772SOL    HW151510   4.113   2.165   2.249  0.2310  0.7393 -0.0839
16772SOL    HW251511   4.044   2.294   2.287 -0.1894  0.1714  1.1499
16773SOL     OW51512   4.433   2.099   3.460  0.7911  0.4622  0.0224
16773SOL    HW151513   4.393   2.043   3.527  0.1778 -0.7634 -1.3186
16773SOL    HW251514   4.507   2.047   3.427  0.7119  0.7861 -0.6697
16774SOL     OW51515   6.945   3.248   2.711 -0.4588  0.0872  0.3618
16774SOL    HW151516   7.002   3.175   2.687 -1.0540  0.3605 -2.0571
16774SOL    HW251517   6.998   3.300   2.772  0.9798 -0.9388  0.0398
16775SOL     OW51518   5.364   1.234   7.671 -0.1257  0.0676 -0.0587
16775SOL    HW151519   5.387   1.199   7.757 -1.2877  0.2362  0.3355
16775SOL    HW251520   5.419   1.312   7.661  1.0069 -0.7037 -0.0726
16776SOL     OW51521   4.503   5.411   1.328  0.5626  0.4122  0.0306
16776SOL    HW151522   4.493   5.410   1.233 -1.5888  1.5429  0.1745
16776SOL    HW251523   4.593   5.382   1.344  0.0837 -2.7814 -2.1925
16777SOL     OW51524   6.924   5.474   3.765 -0.0022 -0.4474 -0.2161
16777SOL    HW151525   6.861   5.441   3.828  0.2566 -2.1393 -0.7871
16777SOL    HW251526   6.978   5.398   3.742  1.1139  0.5420 -1.0670
16778SOL     OW51527   5.763   6.026   5.432 -0.0952 -0.1229  0.1554
16778SOL    HW151528   5.719   6.065   5.357 -0.9050 -0.1795  0.5951
16778SOL    HW251529   5.716   5.943   5.447  1.7000 -1.4107 -0.8886
16779SOL     OW51530   0.424   7.492   0.350  0.0720 -0.0678  0.1371
16779SOL    HW151531   0.357   7.515   0.285 -0.4810 -0.1761  0.6623
16779SOL    HW251532   0.490   7.561   0.342 -1.4875  1.6721  1.5890
16780SOL     OW51533   7.952   6.751   1.603  0.2763  0.3594  0.1436
16780SOL    HW151534   7.979   6.818   1.540  0.6310  0.1387  0.0569
16780SOL    HW251535   7.879   6.707   1.562 -0.2815  1.0124  0.4101
16781SOL     OW51536   6.705   5.126   3.763 -0.2104  0.0278  0.1220
16781SOL    HW151537   6.617   5.149   3.791  0.7797  0.5539  3.1958
16781SOL    HW251538   6.763   5.174   3.823  2.1633 -1.0083 -1.1853
16782SOL     OW51539   3.259   8.414   7.805  0.0875 -0.8274  0.4919
16782SOL    HW151540   3.299   8.385   7.887 -1.5428 -2.5744  0.7237
16782SOL    HW251541   3.248   8.334   7.753  0.6454  0.1769 -1.2852
16783SOL     OW51542   1.251   1.704   3.456  0.3264  0.1712 -0.6348
16783SOL    HW151543   1.250   1.754   3.538  2.0478 -0.7236 -0.0172
16783SOL    HW251544   1.220   1.617   3.480  2.1316 -0.5060 -0.5854
16784SOL     OW51545   7.628   7.904   3.726  0.4673  0.4598 -0.2717
16784SOL    HW151546   7.666   7.924   3.812  1.4176  0.9973 -0.7992
16784SOL    HW251547   7.557   7.967   3.716  0.2569  0.2965  0.1894
16785SOL     OW51548   1.626   3.265   0.505 -0.6891  0.4544  0.7562
16785SOL    HW151549   1.629   3.356   0.476 -0.6605  1.0797  2.6289
16785SOL    HW251550   1.534   3.250   0.529 -0.5741  0.1829  1.0360
16786SOL     OW51551   2.077   6.452   5.606  0.4409  0.5522 -0.2622
16786SOL    HW151552   2.027   6.450   5.688 -1.1445 -1.5394 -1.1965
16786SOL    HW251553   2.152   6.510   5.625  0.6807 -0.6067  2.9624
16787SOL     OW51554   0.997   2.410   3.470  0.1209 -0.1356  0.1736
16787SOL    HW151555   0.965   2.457   3.393  2.6456  0.9953 -0.2929
16787SOL    HW251556   0.968   2.463   3.544 -1.3211 -0.6097 -0.0107
16788SOL     OW51557   8.347   8.045   6.239  0.5117 -0.0519  0.9661
16788SOL    HW151558   8.321   8.061   6.330 -2.4647  0.5548  0.1181
16788SOL    HW251559   8.296   7.969   6.212  0.4311  0.5085 -0.5545
16789SOL     OW51560   3.848   4.200   3.375 -0.5898 -0.0129  0.0116
16789SOL    HW151561   3.912   4.262   3.341 -1.7686  1.2693  0.0298
16789SOL    HW251562   3.824   4.234   3.461 -0.3878 -1.1677  0.5449
16790SOL     OW51563   4.045   6.518   6.236  0.1174  0.1254 -0.1241
16790SOL    HW151564   3.961   6.524   6.190 -1.5202  0.3627  2.6894
16790SOL    HW251565   4.028   6.556   6.322  2.8533 -0.7921  0.9238
16791SOL     OW51566   5.066   1.374   0.666  0.4395 -0.1542 -0.2472
16791SOL    HW151567   5.122   1.341   0.596  2.0810  1.9118 -0.0181
16791SOL    HW251568   5.041   1.462   0.637  0.6642  0.5138  1.4460
16792SOL     OW51569   5.503   0.478   1.154 -0.0376 -0.0030 -0.3517
16792SOL    HW151570   5.593   0.476   1.122 -0.1908 -2.2913 -0.7815
16792SOL    HW251571   5.511   0.511   1.244  1.1139  0.5905 -0.6510
16793SOL     OW51572   2.479   3.811   1.835  0.0475 -0.3919 -0.0495
16793SOL    HW151573   2.526   3.758   1.771 -2.3308 -2.8953  0.0941
16793SOL    HW251574   2.392   3.823   1.797 -0.5638  0.4206  1.5078
16794SOL     OW51575   1.769   6.877   0.395  0.0548  0.1110  0.2375
16794SOL    HW151576   1.678   6.875   0.367 -0.9606  0.9796  3.0755
16794SOL    HW251577   1.787   6.789   0.428 -0.6396  0.6004  2.0084
16795SOL     OW51578   6.430   7.290   0.411  0.5372 -0.0787  0.1556
16795SOL    HW151579   6.365   7.335   0.358  0.3980  0.4827  0.7931
16795SOL    HW251580   6.513   7.306   0.365  0.4272  0.4526  0.1302
16796SOL     OW51581   6.758   2.615   0.638 -0.0909  0.5775  0.7212
16796SOL    HW151582   6.746   2.710   0.643  0.4684  0.6123  1.5713
16796SOL    HW251583   6.785   2.589   0.726 -0.5451 -0.4183  0.5823
16797SOL     OW51584   0.255   7.226   0.620 -0.0607  0.2456 -0.4292
16797SOL    HW151585   0.351   7.223   0.624 -0.1135 -0.1874  1.3429
16797SOL    HW251586   0.230   7.289   0.687 -1.0179  1.3047 -1.7079
16798SOL     OW51587   3.298   4.051   1.912  0.4443 -0.4326  0.2042
16798SOL    HW151588   3.290   3.972   1.966 -0.8786 -0.4321  0.0641
16798SOL    HW251589   3.383   4.043   1.870  1.8917 -0.0487  2.8556
16799SOL     OW51590   1.520   5.980   7.328  0.1093  0.2997  0.0194
16799SOL    HW151591   1.595   6.023   7.367 -0.2957  1.7775 -0.7808
16799SOL    HW251592   1.508   6.022   7.243 -1.2276 -0.3441 -0.1514
16800SOL     OW51593   2.096   3.113   0.899  0.8363 -0.0812  0.0939
16800SOL    HW151594   2.089   3.180   0.967  1.0792 -0.0318  0.0708
16800SOL    HW251595   2.075   3.031   0.945  0.3783  0.0282  0.0846
16801SOL     OW51596   2.797   3.431   1.733  0.5370 -0.2514 -0.1092
16801SOL    HW151597   2.769   3.345   1.765  3.5589 -1.9952 -1.6798
16801SOL    HW251598   2.868   3.457   1.791  2.2776 -0.7837 -1.8877
16802SOL     OW51599   4.002   3.666   0.918 -0.0329 -0.3421 -0.8404
16802SOL    HW151600   4.028   3.627   0.835  1.0301 -1.5541  0.0190
16802SOL    HW251601   4.046   3.751   0.920 -0.6136 -0.0037 -1.7873
16803SOL     OW51602   6.170   6.319   8.419 -0.4316 -0.2849  0.3640
16803SOL    HW151603   6.184   6.410   8.443 -0.4062 -0.0538 -0.4973
16803SOL    HW251604   6.239   6.299   8.356 -2.0109 -0.0621 -1.5507
16804SOL     OW51605   5.589   5.622   7.147 -0.1644 -0.1404 -0.4041
16804SOL    HW151606   5.613   5.533   7.170  0.3428 -0.1674 -1.0270
16804SOL    HW251607   5.646   5.645   7.074  1.0309  1.3475  0.9117
16805SOL     OW51608   4.563   6.107   2.121  0.5879  0.4107 -0.5211
16805SOL    HW151609   4.506   6.146   2.055 -0.3735 -1.0667 -0.6180
16805SOL    HW251610   4.536   6.148   2.203 -1.6283 -1.1824 -0.3527
16806SOL     OW51611   4.325   0.981   7.990 -0.5478  0.0628 -0.2312
16806SOL    HW151612   4.313   1.061   7.939 -2.1277  1.9792  2.9058
16806SOL    HW251613   4.416   0.985   8.021 -1.2804  2.0174  1.8928
16807SOL     OW51614   8.578   5.230   5.822 -0.2614 -0.0196  0.0084
16807SOL    HW151615   8.540   5.183   5.748 -0.6151 -0.2525  0.3343
16807SOL    HW251616   8.595   5.162   5.887  1.8697 -0.1236 -0.5767
16808SOL     OW51617   6.097   4.551   1.251  0.4659 -0.3180  0.0976
16808SOL    HW151618   6.189   4.531   1.235  0.2165 -1.9870  0.6482
16808SOL    HW251619   6.054   4.466   1.258 -1.1939  0.4217 -0.4934
16809SOL     OW51620   0.117   7.443   6.903  0.4723 -0.0433 -0.0748
16809SOL    HW151621   0.103   7.350   6.919 -0.5923  0.2275  0.6181
16809SOL    HW251622   0.189   7.445   6.839 -0.5311 -1.3942 -1.3378
16810SOL     OW51623   3.250   8.441   3.454  0.6635  0.2036 -0.6155
16810SOL    HW151624   3.276   8.485   3.535  1.0056 -1.0424 -0.0276
16810SOL    HW251625   3.242   8.349   3.478 -2.1432  0.1721 -1.2949
16811SOL     OW51626   3.043   8.330   5.722  0.0235 -0.5586 -0.2191
16811SOL    HW151627   3.010   8.298   5.805 -1.2133 -0.1110 -0.5193
16811SOL    HW251628   3.091   8.256   5.685  1.7929 -0.3549  1.4787
16812SOL     OW51629   4.419   5.200   3.862  0.1231  0.2662 -0.0195
16812SOL    HW151630   4.410   5.273   3.802  0.9682  0.6878  0.3441
16812SOL    HW251631   4.356   5.217   3.932  0.7388  0.9717  0.3752
16813SOL     OW51632   3.407   0.651   8.166 -0.5264 -0.3879 -0.3462
16813SOL    HW151633   3.477   0.680   8.108 -0.5044 -1.2567 -0.7720
16813SOL    HW251634   3.408   0.713   8.238  0.1385  0.0894 -0.7596
16814SOL     OW51635   2.329   0.659   6.940  0.2612 -0.0649  0.0952
16814SOL    HW151636   2.235   0.649   6.954  0.1040  1.6434  0.4245
16814SOL    HW251637   2.347   0.752   6.956  1.6356  0.1328 -2.0648
16815SOL     OW51638   0.055   4.583   1.914 -0.0633  0.0711  0.0041
16815SOL    HW151639   0.015   4.545   1.992  1.8497 -0.0500  0.9806
16815SOL    HW251640   0.119   4.518   1.886  1.1806  1.2703 -0.0465
16816SOL     OW51641   0.972   3.935   2.146  0.2503 -0.4139 -0.4128
16816SOL    HW151642   1.000   4.012   2.095  0.2924 -0.4907 -0.5053
16816SOL    HW251643   1.047   3.917   2.203  0.4513 -0.7163 -0.7728
16817SOL     OW51644   3.462   5.517   0.158  0.1103  0.2408 -0.1980
16817SOL    HW151645   3.385   5.507   0.102  1.0077 -0.1630 -1.4193
16817SOL    HW251646   3.436   5.581   0.224 -1.4501 -0.3269 -0.2164
16818SOL     OW51647   5.738   2.593   7.764 -0.0956  0.2937  0.2197
16818SOL    HW151648   5.664   2.628   7.715  1.6389  1.0705 -1.9878
16818SOL    HW251649   5.738   2.642   7.846 -1.9837  0.2795  0.2585
16819SOL     OW51650   4.424   3.488   0.230  0.4394 -0.2020 -0.3937
16819SOL    HW151651   4.500   3.535   0.263  1.6603 -1.7495 -0.9267
16819SOL    HW251652   4.374   3.464   0.309  0.1043  1.4041 -0.0852
16820SOL     OW51653   5.194   7.886   2.574 -0.0276 -0.3731 -0.4477
16820SOL    HW151654   5.161   7.873   2.663 -0.8659 -0.9864 -0.8274
16820SOL    HW251655   5.274   7.938   2.585 -0.3317 -0.1018  0.6262
16821SOL     OW51656   0.072   0.173   5.224 -0.5484 -0.0071 -0.2679
16821SOL    HW151657   0.070   0.160   5.318 -2.2014 -0.4908 -0.3246
16821SOL    HW251658   0.049   0.266   5.212 -0.9134 -0.0857 -0.1985
16822SOL     OW51659   8.471   0.104   2.296  0.4730  0.4002 -0.7345
16822SOL    HW151660   8.535   0.173   2.281 -0.0762  1.2716  0.7360
16822SOL    HW251661   8.470   0.054   2.214  0.8739  2.1353 -1.8548
16823SOL     OW51662   0.229   8.420   1.902 -0.5294 -0.1038 -0.1768
16823SOL    HW151663   0.217   8.335   1.859 -0.2557 -0.3799  0.2839
16823SOL    HW251664   0.320   8.442   1.884 -0.0260 -0.8227  1.3001
16824SOL     OW51665   1.664   1.893   2.315  0.1809 -0.3565  0.1832
16824SOL    HW151666   1.751   1.861   2.340  0.1654  1.4849  3.0470
16824SOL    HW251667   1.681   1.977   2.272 -0.1533 -0.5728 -0.3872
16825SOL     OW51668   3.377   7.830   7.505  0.2770 -0.0593 -0.1228
16825SOL    HW151669   3.403   7.823   7.413 -0.9237  2.9040 -0.7998
16825SOL    HW251670   3.283   7.845   7.503  0.2624  0.3305  1.5747
16826SOL     OW51671   0.326   2.395   2.680 -0.3920  0.3033 -0.5492
16826SOL    HW151672   0.247   2.417   2.729 -0.8564 -0.1772 -1.0696
16826SOL    HW251673   0.301   2.320   2.626  0.6036 -0.2712 -0.2516
16827SOL     OW51674   4.581   1.679   5.404  0.6460  0.4944  0.3772
16827SOL    HW151675   4.610   1.673   5.495  1.0407 -0.0639  0.2192
16827SOL    HW251676   4.486   1.676   5.409  0.6902 -0.5303  0.7116
16828SOL     OW51677   2.122   7.759   8.234 -0.6250  0.7446  0.5383
16828SOL    HW151678   2.113   7.839   8.181  0.1313  0.0699 -0.6834
16828SOL    HW251679   2.113   7.688   8.170  0.3587 -0.1020  1.3119
16829SOL     OW51680   6.833   7.699   5.668 -0.5516  0.3900 -0.2814
16829SOL    HW151681   6.834   7.769   5.733  1.9231 -0.6861  0.9567
16829SOL    HW251682   6.822   7.619   5.720  0.5461 -0.4155 -1.2500
16830SOL     OW51683   7.822   3.798   2.046 -0.6904 -0.3470 -0.1488
16830SOL    HW151684   7.752   3.858   2.071 -0.2984  0.0795 -0.0560
16830SOL    HW251685   7.840   3.746   2.124  0.8463  1.2903  0.6679
16831SOL     OW51686   7.967   8.071   5.809  0.0728 -0.4159  0.1427
16831SOL    HW151687   8.049   8.025   5.796  1.6586  1.8101  1.5019
16831SOL    HW251688   7.969   8.099   5.900 -0.8051  2.1724 -0.5389
16832SOL     OW51689   4.105   7.244   0.258 -0.4713 -0.1051 -0.0201
16832SOL    HW151690   4.017   7.249   0.220  0.1801  1.0765 -1.4726
16832SOL    HW251691   4.163   7.238   0.183  0.8281  1.4391  0.8118
16833SOL     OW51692   2.592   5.826   0.502  0.5986  0.3214 -0.1263
16833SOL    HW151693   2.661   5.840   0.567  0.8799  2.8354 -0.8491
16833SOL    HW251694   2.639   5.823   0.418 -0.1314  3.0499 -0.7341
16834SOL     OW51695   8.525   4.126   6.845 -0.1181 -0.6072 -0.1639
16834SOL    HW151696   8.567   4.051   6.887  0.1017 -0.9594 -0.9976
16834SOL    HW251697   8.463   4.088   6.783  1.3427 -0.1608 -1.9837
16835SOL     OW51698   8.130   3.642   7.970 -0.0340 -0.2869  1.0547
16835SOL    HW151699   8.054   3.687   8.008  0.7261 -1.2500  4.0362
16835SOL    HW251700   8.186   3.624   8.046  2.6171 -0.6766 -0.8815
16836SOL     OW51701   2.146   1.772   5.145  0.6245 -0.5680 -0.2175
16836SOL    HW151702   2.198   1.849   5.124 -0.0864  0.0932  0.3966
16836SOL    HW251703   2.060   1.788   5.106  0.6687 -1.3607 -0.6732
16837SOL     OW51704   4.782   1.018   3.190  0.1667  0.1999 -0.0611
16837SOL    HW151705   4.749   1.087   3.247 -0.3877 -0.4822  0.4528
16837SOL    HW251706   4.786   0.940   3.245  0.5410 -0.2444 -0.6987
16838SOL     OW51707   2.142   8.286   7.778 -1.3553  0.3321 -0.3060
16838SOL    HW151708   2.093   8.288   7.695 -1.0795 -1.5048 -0.5686
16838SOL    HW251709   2.198   8.209   7.770  0.9454  1.8398  0.3614
16839SOL     OW51710   8.099   7.716   3.117  0.2166 -0.2484 -0.6171
16839SOL    HW151711   8.190   7.743   3.104 -0.2850  1.8761 -0.1355
16839SOL    HW251712   8.098   7.677   3.205  0.6494 -0.2464 -0.6075
16840SOL     OW51713   4.838   7.843   6.179  0.2145 -0.1025  0.2780
16840SOL    HW151714   4.890   7.764   6.191  1.2281  0.7123  1.5650
16840SOL    HW251715   4.772   7.840   6.248  0.7248  0.5189  0.8018
16841SOL     OW51716   4.400   7.116   4.484 -0.0012 -0.0715  0.8094
16841SOL    HW151717   4.365   7.081   4.566  1.0400 -0.7970  0.9644
16841SOL    HW251718   4.495   7.121   4.499  0.3418 -1.2287 -0.7012
16842SOL     OW51719   1.583   6.361   7.123  0.3534  0.2576 -0.4000
16842SOL    HW151720   1.576   6.334   7.032 -0.0776  0.4246 -0.4195
16842SOL    HW251721   1.538   6.293   7.172  1.1350 -0.1572 -0.2514
16843SOL     OW51722   5.790   2.586   3.211  0.5279 -0.7054  0.4520
16843SOL    HW151723   5.743   2.537   3.279  1.4226 -0.3112  1.3724
16843SOL    HW251724   5.731   2.658   3.189  1.0156  0.2915  2.2237
16844SOL     OW51725   2.207   1.626   1.466 -0.2129  0.0395  0.5418
16844SOL    HW151726   2.182   1.548   1.516 -1.6585 -0.3860 -0.7584
16844SOL    HW251727   2.250   1.592   1.388 -1.6377  0.4474 -0.4641
16845SOL     OW51728   3.403   4.132   6.444 -0.3749  0.5051 -0.5919
16845SOL    HW151729   3.393   4.226   6.462 -1.1919  0.1943  0.7083
16845SOL    HW251730   3.357   4.089   6.516  1.5077 -0.9359 -0.1967
16846SOL     OW51731   7.655   1.689   0.761 -0.4944  0.4687  0.0987
16846SOL    HW151732   7.615   1.729   0.684  0.0749 -0.6169 -0.7975
16846SOL    HW251733   7.744   1.722   0.762 -0.3337  0.0510 -0.0439
16847SOL     OW51734   4.077   0.582   6.433  0.0693 -0.0889 -0.5213
16847SOL    HW151735   4.102   0.656   6.377 -1.3150  0.7863 -0.0354
16847SOL    HW251736   4.086   0.505   6.377  2.6819  0.2661 -0.7038
16848SOL     OW51737   8.076   7.734   3.618 -0.8518 -0.0512 -0.2266
16848SOL    HW151738   8.005   7.752   3.680  1.0586 -0.1959  2.1548
16848SOL    HW251739   8.086   7.639   3.619  0.2011  0.0451  0.5148
16849SOL     OW51740   4.818   0.805   8.131  0.4653 -0.0055 -0.0192
16849SOL    HW151741   4.724   0.801   8.149  0.4362  0.2278 -0.1123
16849SOL    HW251742   4.858   0.755   8.202  0.4022  1.4902  1.1352
16850SOL     OW51743   3.055   6.754   7.237 -0.0436 -0.4673  0.2166
16850SOL    HW151744   2.988   6.816   7.206 -1.0712 -2.4904 -1.9785
16850SOL    HW251745   3.113   6.743   7.161 -0.1134 -2.4015  0.4047
16851SOL     OW51746   0.169   0.683   6.066  0.3521  0.2024  0.3302
16851SOL    HW151747   0.196   0.635   6.144 -0.3104 -0.7864 -0.0306
16851SOL    HW251748   0.075   0.666   6.058  0.8704 -2.0931 -2.2300
16852SOL     OW51749   8.294   2.696   3.070  0.3172  0.4510 -0.1577
16852SOL    HW151750   8.291   2.752   2.992 -1.8134 -0.1282 -0.5721
16852SOL    HW251751   8.255   2.614   3.041  2.0371 -0.7837  0.8261
16853SOL     OW51752   0.836   2.046   5.560 -0.5992  0.3057 -0.1069
16853SOL    HW151753   0.778   2.103   5.610 -0.1921  0.5387  0.1047
16853SOL    HW251754   0.809   2.057   5.469 -0.6019  0.7404 -0.0541
16854SOL     OW51755   5.870   5.347   4.591  0.5187 -0.4728  0.1167
16854SOL    HW151756   5.877   5.437   4.622  0.8435 -0.6908  0.7000
16854SOL    HW251757   5.809   5.305   4.652 -0.2057 -0.4589 -0.5914
16855SOL     OW51758   5.017   4.339   6.319 -0.2741  0.0917 -0.4570
16855SOL    HW151759   4.976   4.354   6.404 -0.3764 -0.9076 -0.3172
16855SOL    HW251760   4.944   4.338   6.257 -0.3997 -0.8935 -0.3133
16856SOL     OW51761   6.136   6.970   3.673  0.2197  0.5554 -0.0266
16856SOL    HW151762   6.144   7.051   3.724  0.3222  1.1380 -0.9534
16856SOL    HW251763   6.220   6.961   3.629  0.1227  0.0726 -0.1120
16857SOL     OW51764   5.455   2.989   8.543 -0.6374  0.1977  0.4546
16857SOL    HW151765   5.445   2.914   8.483 -3.4238  0.3576  0.5987
16857SOL    HW251766   5.441   3.065   8.487 -1.1628  0.4351  0.9029
16858SOL     OW51767   0.075   8.277   7.673  0.2094 -0.0947 -0.2329
16858SOL    HW151768   0.046   8.187   7.686  0.5645 -0.3730 -1.2217
16858SOL    HW251769   0.025   8.329   7.736 -1.1906 -0.7691 -0.7446
16859SOL     OW51770   7.891   8.239   3.324  0.3252  0.0152  0.1548
16859SOL    HW151771   7.819   8.265   3.266  0.7768  0.9389 -0.0190
16859SOL    HW251772   7.904   8.146   3.307  0.8280  0.3915 -1.6540
16860SOL     OW51773   3.575   6.626   5.613 -0.2233  0.1110 -0.2175
16860SOL    HW151774   3.481   6.608   5.603 -0.9580  2.6061  1.4708
16860SOL    HW251775   3.601   6.665   5.529 -0.5431 -0.9453 -0.8380
16861SOL     OW51776   6.722   4.496   5.510  0.2439 -0.2012  0.0066
16861SOL    HW151777   6.677   4.412   5.501 -0.1752 -0.3644  2.6322
16861SOL    HW251778   6.815   4.474   5.513  0.1886 -0.4667 -0.1904
16862SOL     OW51779   2.249   0.156   8.377  0.8068  0.2267 -0.2127
16862SOL    HW151780   2.328   0.127   8.422  1.3989 -0.5211 -1.6369
16862SOL    HW251781   2.274   0.238   8.335  0.8091  0.0295 -0.6002
16863SOL     OW51782   0.907   2.284   7.278 -0.2550 -0.2426  0.0347
16863SOL    HW151783   0.952   2.223   7.337  1.7846  0.9324 -0.2201
16863SOL    HW251784   0.817   2.252   7.276  0.3788 -2.3256  1.1037
16864SOL     OW51785   5.881   0.299   3.251 -0.5693  1.0172 -0.3204
16864SOL    HW151786   5.804   0.264   3.207 -1.1564  2.9658 -0.9442
16864SOL    HW251787   5.855   0.309   3.342  0.0715 -1.3749  0.1951
16865SOL     OW51788   2.058   8.091   1.340  0.2059  0.7930  0.2207
16865SOL    HW151789   1.968   8.111   1.363  0.4819  1.2042  0.9910
16865SOL    HW251790   2.086   8.026   1.404  0.8451  1.6131  0.7952
16866SOL     OW51791   4.879   6.722   0.499  0.1619 -0.0571 -0.0493
16866SOL    HW151792   4.922   6.796   0.544 -0.5711 -0.7253  1.8709
16866SOL    HW251793   4.790   6.752   0.484  0.2108 -0.1026 -0.4323
16867SOL     OW51794   7.441   3.580   6.572 -0.2312 -0.4525 -0.2368
16867SOL    HW151795   7.450   3.642   6.499 -1.2541  0.8207  0.6675
16867SOL    HW251796   7.430   3.636   6.649 -0.1391 -1.7755  0.7659
16868SOL     OW51797   4.615   6.595   3.482  0.4909  0.3097  1.2037
16868SOL    HW151798   4.554   6.641   3.424  0.8940 -0.5839  0.0243
16868SOL    HW251799   4.690   6.574   3.427  1.7452  1.0785  2.5426
16869SOL     OW51800   2.830   0.208   0.574  0.4743 -0.4210  0.1126
16869SOL    HW151801   2.786   0.290   0.595 -0.3852 -0.7785 -0.2551
16869SOL    HW251802   2.768   0.161   0.518 -0.1848 -2.4754  2.3830
16870SOL     OW51803   7.586   3.280   8.224  0.1315 -0.3432  0.1923
16870SOL    HW151804   7.564   3.187   8.218  1.9347 -0.8054  0.3600
16870SOL    HW251805   7.513   3.318   8.273 -0.5076 -1.7052  0.3453
16871SOL     OW51806   4.436   0.638   6.370 -0.0555  0.6467 -0.1827
16871SOL    HW151807   4.521   0.594   6.377 -0.6938 -0.7123 -0.6570
16871SOL    HW251808   4.384   0.581   6.313 -0.9629  1.9791 -0.7416
16872SOL     OW51809   6.743   5.112   8.520  0.1229 -0.2674  0.7086
16872SOL    HW151810   6.795   5.139   8.596  2.0536  1.2342 -1.0266
16872SOL    HW251811   6.777   5.026   8.498  0.2168 -0.3009  0.9774
16873SOL     OW51812   6.846   3.238   0.565 -0.3632 -0.5172 -0.7010
16873SOL    HW151813   6.938   3.224   0.585 -0.2868 -0.3461 -0.9208
16873SOL    HW251814   6.826   3.324   0.602 -0.3051 -0.3416 -1.0698
16874SOL     OW51815   3.903   7.659   3.256 -0.5337  0.0428 -0.0372
16874SOL    HW151816   3.914   7.674   3.350  0.6665 -0.1941 -0.1307
16874SOL    HW251817   3.811   7.634   3.247 -1.0726  1.5906  0.8563
16875SOL     OW51818   7.097   6.478   0.144  0.5442 -0.3150  0.6007
16875SOL    HW151819   7.191   6.468   0.159  0.8369 -0.8516 -1.2797
16875SOL    HW251820   7.078   6.420   0.071 -0.9619  0.8569 -0.0013
16876SOL     OW51821   4.632   6.155   6.850 -0.0971 -0.4860 -0.6313
16876SOL    HW151822   4.537   6.150   6.860 -0.1906 -0.5345 -1.4380
16876SOL    HW251823   4.663   6.200   6.929 -0.8102 -0.2724 -0.4685
16877SOL     OW51824   1.686   7.905   4.331  0.4872 -0.1715 -0.2754
16877SOL    HW151825   1.607   7.951   4.360  0.1550 -0.8875 -0.0431
16877SOL    HW251826   1.707   7.945   4.246  1.2563  1.6714  0.7227
16878SOL     OW51827   8.493   6.850   3.011  0.2941 -0.5367 -0.0674
16878SOL    HW151828   8.435   6.778   3.034 -0.8166  0.3603  0.0625
16878SOL    HW251829   8.561   6.849   3.079  0.6126 -1.7756 -0.3838
16879SOL     OW51830   0.636   3.417   4.655 -0.1177  0.4807  0.1294
16879SOL    HW151831   0.560   3.472   4.671  0.1676  0.6911  0.7788
16879SOL    HW251832   0.705   3.478   4.628 -0.1312  0.3087 -0.3043
16880SOL     OW51833   7.304   4.102   1.171  0.3010 -0.1906 -0.2473
16880SOL    HW151834   7.366   4.163   1.130  0.5647  2.0958  3.1329
16880SOL    HW251835   7.353   4.065   1.245 -1.8816  0.7299  1.7763
16881SOL     OW51836   5.302   6.090   0.648 -0.3332 -0.1271  0.3557
16881SOL    HW151837   5.344   6.119   0.566 -0.5388 -1.0834 -0.0996
16881SOL    HW251838   5.257   6.169   0.680 -0.3013  0.2485 -0.4845
16882SOL     OW51839   1.339   5.800   7.072  0.6746  0.3837 -0.2525
16882SOL    HW151840   1.288   5.861   7.126  0.1216 -0.6150  0.3845
16882SOL    HW251841   1.403   5.763   7.133 -0.5455 -1.4365  0.0008
16883SOL     OW51842   4.567   4.710   7.230 -0.3658  0.4373 -0.2079
16883SOL    HW151843   4.562   4.628   7.278 -0.8795  0.7509  0.2987
16883SOL    HW251844   4.475   4.734   7.214 -0.2646  1.3475  0.4347
16884SOL     OW51845   2.952   4.785   1.973  0.2654  0.5321 -0.1819
16884SOL    HW151846   2.939   4.727   2.047 -2.3829 -1.1570 -1.8015
16884SOL    HW251847   3.005   4.734   1.912  0.9643  1.2378 -0.1801
16885SOL     OW51848   4.917   1.396   3.505 -0.0256 -0.5658  0.4759
16885SOL    HW151849   5.013   1.393   3.510  0.0670 -2.3646 -1.0906
16885SOL    HW251850   4.899   1.466   3.442  0.4577 -1.9933 -1.3561
16886SOL     OW51851   2.961   7.379   0.171  0.2127  0.0100 -0.2278
16886SOL    HW151852   2.938   7.446   0.106  1.0808  0.8568  0.3148
16886SOL    HW251853   2.901   7.307   0.152 -2.4586  1.8208  0.6553
16887SOL     OW51854   1.487   6.552   1.470  0.8087  0.2561  0.6889
16887SOL    HW151855   1.485   6.559   1.565  1.5281 -0.6263  0.7828
16887SOL    HW251856   1.517   6.638   1.441 -3.4001  2.0263  0.9582
16888SOL     OW51857   4.797   1.856   1.947 -0.4807 -0.6107  0.1236
16888SOL    HW151858   4.808   1.944   1.911  0.2088 -1.4172 -1.7759
16888SOL    HW251859   4.713   1.859   1.993 -0.5934  0.9563 -0.1319
16889SOL     OW51860   1.177   8.089   6.613  0.5671 -0.3037  0.3773
16889SOL    HW151861   1.191   8.172   6.657  2.4941 -0.7174  0.6301
16889SOL    HW251862   1.235   8.091   6.537 -0.6239 -0.7438 -0.5778
16890SOL     OW51863   3.283   8.129   4.668 -0.1986 -0.3435 -0.1211
16890SOL    HW151864   3.230   8.073   4.610  0.2015  0.2980 -1.1392
16890SOL    HW251865   3.352   8.162   4.611  0.8631 -0.5621  1.0139
16891SOL     OW51866   2.414   5.990   7.846 -0.7806 -0.0179 -0.0676
16891SOL    HW151867   2.446   5.900   7.842 -0.2254  0.1413  0.6347
16891SOL    HW251868   2.328   5.987   7.804 -1.3390 -1.1447  1.0905
16892SOL     OW51869   3.307   6.494   1.534 -1.1130 -0.5935 -0.0697
16892SOL    HW151870   3.269   6.576   1.501 -1.3841 -0.6584  0.0733
16892SOL    HW251871   3.283   6.428   1.469 -1.0804 -0.5994 -0.0759
16893SOL     OW51872   4.158   1.352   0.869  0.6947 -0.1897  0.4790
16893SOL    HW151873   4.167   1.345   0.964  2.3717 -1.2296  0.2966
16893SOL    HW251874   4.208   1.431   0.847  0.4785 -0.0640  0.4400
16894SOL     OW51875   2.690   5.499   4.104 -0.0142 -0.0384  0.1679
16894SOL    HW151876   2.722   5.582   4.139  2.1897 -0.5408 -0.5201
16894SOL    HW251877   2.750   5.433   4.138 -1.1037 -1.2210 -0.1379
16895SOL     OW51878   7.362   7.667   3.112 -0.0573 -0.2024  0.2205
16895SOL    HW151879   7.336   7.653   3.021 -0.5688 -0.0207  0.3370
16895SOL    HW251880   7.301   7.733   3.144 -0.9089 -1.3851  1.1473
16896SOL     OW51881   1.219   7.158   2.762  0.1023 -0.3806  0.3458
16896SOL    HW151882   1.236   7.083   2.819  0.5346  0.1858  0.9627
16896SOL    HW251883   1.244   7.127   2.675 -2.3573 -1.8943  0.0872
16897SOL     OW51884   0.288   1.535   1.200 -0.3497  0.3120  0.0950
16897SOL    HW151885   0.197   1.563   1.201 -0.2817  0.5222  0.4439
16897SOL    HW251886   0.336   1.605   1.244  0.1495  0.7582 -1.1197
16898SOL     OW51887   6.018   3.186   2.755 -0.1894  0.1670  0.1981
16898SOL    HW151888   6.028   3.161   2.663 -1.3119 -0.1386  0.1359
16898SOL    HW251889   6.019   3.103   2.802  0.4176  0.3265  0.4618
16899SOL     OW51890   6.084   3.682   2.313  0.6675 -0.1969  0.5539
16899SOL    HW151891   6.007   3.735   2.332 -0.1238 -0.4218 -1.7164
16899SOL    HW251892   6.151   3.713   2.374 -0.8481  0.8265  1.7621
16900SOL     OW51893   8.519   0.389   7.200 -0.3648  0.1614 -0.0756
16900SOL    HW151894   8.576   0.433   7.263 -1.6560  2.9051 -0.6301
16900SOL    HW251895   8.541   0.430   7.116 -0.8006 -1.1832 -0.8656
16901SOL     OW51896   1.049   2.580   0.213 -0.2759  0.0516  0.0437
16901SOL    HW151897   1.020   2.525   0.141  1.3495 -1.7992  0.7303
16901SOL    HW251898   1.135   2.612   0.187 -0.6303  1.2327  0.2302
16902SOL     OW51899   4.082   3.439   7.822 -0.5557 -0.0177  0.0183
16902SOL    HW151900   4.162   3.487   7.844 -0.2833  0.6220 -2.1692
16902SOL    HW251901   4.112   3.349   7.807 -0.4955 -0.0979  0.5806
16903SOL     OW51902   3.554   7.045   0.816 -0.5085 -0.3520 -0.8939
16903SOL    HW151903   3.559   7.100   0.894  0.4460 -0.5521 -0.8047
16903SOL    HW251904   3.636   7.062   0.770 -0.9849 -0.3643 -1.7689
16904SOL     OW51905   7.215   0.977   6.427 -0.1765 -0.4118  0.2796
16904SOL    HW151906   7.265   1.057   6.443 -0.7343 -0.0296  0.1386
16904SOL    HW251907   7.261   0.934   6.355  1.0907 -1.0618  1.4415
16905SOL     OW51908   5.475   5.340   0.866 -0.0924 -0.0597  0.1703
16905SOL    HW151909   5.542   5.277   0.842 -0.9983 -1.4812  1.1924
16905SOL    HW251910   5.430   5.360   0.784  0.1512 -0.8171 -0.1568
16906SOL     OW51911   7.615   2.819   3.196  0.3376 -0.1756  0.3037
16906SOL    HW151912   7.662   2.740   3.223 -0.6066 -0.8303  0.1279
16906SOL    HW251913   7.628   2.881   3.267  2.5101  0.1389 -0.3121
16907SOL     OW51914   3.146   0.604   6.401  0.2878 -0.0394 -0.8818
16907SOL    HW151915   3.099   0.685   6.419  0.9850 -0.1127  1.7116
16907SOL    HW251916   3.095   0.537   6.448  1.2681 -0.6034 -0.5963
16908SOL     OW51917   5.431   7.382   2.494 -0.2416 -0.1196  0.6884
16908SOL    HW151918   5.388   7.414   2.573  0.8284 -0.0653  1.2767
16908SOL    HW251919   5.525   7.386   2.515  0.0804  0.2731 -0.7293
16909SOL     OW51920   1.340   1.547   5.216  0.0369  0.2857  0.3281
16909SOL    HW151921   1.334   1.474   5.153 -1.1005 -0.9249  1.7671
16909SOL    HW251922   1.261   1.598   5.200  0.8556  1.2652 -0.7086
16910SOL     OW51923   8.374   6.174   0.324  0.2012 -0.1899 -0.1096
16910SOL    HW151924   8.454   6.226   0.318 -0.0534  0.2876  0.5732
16910SOL    HW251925   8.333   6.183   0.238  1.1741 -0.9475 -0.6868
16911SOL     OW51926   1.072   5.656   1.882  0.2380 -0.6349  0.0996
16911SOL    HW151927   1.062   5.741   1.924  0.0015 -0.3494 -0.5289
16911SOL    HW251928   1.072   5.593   1.955 -1.4372 -0.2595  0.4622
16912SOL     OW51929   2.705   1.411   2.581  0.0552 -0.1604 -0.3204
16912SOL    HW151930   2.778   1.465   2.549  0.0992  0.8121  1.2921
16912SOL    HW251931   2.662   1.380   2.502  2.5065 -1.2047 -1.3670
16913SOL     OW51932   7.709   3.746   0.491  0.5072  0.1667 -0.4468
16913SOL    HW151933   7.743   3.744   0.402  0.7219  0.7681 -0.3760
16913SOL    HW251934   7.634   3.806   0.487 -1.1816 -1.8428 -0.8214
16914SOL     OW51935   3.151   2.058   4.537 -0.0840 -0.1320  0.2073
16914SOL    HW151936   3.103   2.101   4.608  0.2427 -0.5206  0.6676
16914SOL    HW251937   3.159   2.126   4.470 -1.9542 -0.2831 -0.2211
16915SOL     OW51938   6.770   4.686   4.814 -0.4071  0.2105 -0.1240
16915SOL    HW151939   6.682   4.649   4.822 -0.0440 -0.8980 -0.9579
16915SOL    HW251940   6.812   4.632   4.747  1.3498 -0.1415  1.1770
16916SOL     OW51941   4.011   2.703   0.953  0.5441 -0.4067 -0.6299
16916SOL    HW151942   3.930   2.739   0.990  1.1343  0.9435 -0.5714
16916SOL    HW251943   4.030   2.760   0.877  0.0741 -2.2905 -2.2416
16917SOL     OW51944   3.374   1.859   0.125  0.1799  0.1506 -0.5624
16917SOL    HW151945   3.401   1.846   0.216  0.5864  0.5783 -0.6135
16917SOL    HW251946   3.431   1.801   0.075  0.3264  0.3123 -0.5857
16918SOL     OW51947   4.840   0.610   2.751  0.0299  0.1643  0.2091
16918SOL    HW151948   4.766   0.669   2.738  0.1850  0.0132 -1.5271
16918SOL    HW251949   4.865   0.623   2.843 -2.6208 -0.3663  1.0824
16919SOL     OW51950   3.489   5.090   3.436 -0.0846  0.0217  0.3306
16919SOL    HW151951   3.505   5.179   3.467 -0.4397  0.0866  0.3354
16919SOL    HW251952   3.434   5.102   3.359 -1.5205 -0.2548  1.2733
16920SOL     OW51953   3.325   6.287   4.290  0.1460 -0.1220 -0.5153
16920SOL    HW151954   3.409   6.277   4.336 -0.6867 -1.3720  0.7898
16920SOL    HW251955   3.263   6.315   4.357 -0.7679 -0.4261 -1.2128
16921SOL     OW51956   3.872   3.145   0.048 -0.7372 -0.2461 -0.2420
16921SOL    HW151957   3.798   3.085   0.062 -0.3218 -0.6744  0.1360
16921SOL    HW251958   3.947   3.100   0.085 -0.3066  0.2568 -0.4911
16922SOL     OW51959   0.718   3.122   3.455 -0.0851  0.2745  0.1363
16922SOL    HW151960   0.734   3.128   3.361  1.1899  0.9195  0.3655
16922SOL    HW251961   0.696   3.212   3.481  3.0979  0.9482  0.9802
16923SOL     OW51962   8.494   4.692   3.255 -0.1253  0.5578 -0.3306
16923SOL    HW151963   8.535   4.717   3.338 -0.2725  1.2600 -0.4683
16923SOL    HW251964   8.512   4.598   3.248 -1.5900  0.0775  1.3663
16924SOL     OW51965   8.213   2.118   7.381  0.6289  0.1133  0.2103
16924SOL    HW151966   8.300   2.094   7.350  1.9037  1.0445  2.7372
16924SOL    HW251967   8.174   2.168   7.309  1.0761 -2.4850 -1.9945
16925SOL     OW51968   7.931   6.119   6.594 -0.5697  0.2791  0.0443
16925SOL    HW151969   7.995   6.050   6.615  0.5928  1.8305  1.8943
16925SOL    HW251970   7.974   6.171   6.526 -0.5592  0.3938  0.1399
16926SOL     OW51971   1.495   6.453   7.775 -0.0465  0.1574  0.0055
16926SOL    HW151972   1.450   6.379   7.734 -3.3356  1.5932  0.6346
16926SOL    HW251973   1.496   6.520   7.706  0.1204  0.5138  0.3529
16927SOL     OW51974   2.114   3.072   3.938  0.4325  0.1794  0.8367
16927SOL    HW151975   2.183   3.042   3.879 -0.0898 -0.0140  0.3168
16927SOL    HW251976   2.116   3.009   4.010  1.2162  0.5422  1.1429
16928SOL     OW51977   2.632   6.119   7.738 -0.2127 -0.3121 -0.0004
16928SOL    HW151978   2.633   6.081   7.651  0.2797  0.1165 -0.1887
16928SOL    HW251979   2.555   6.081   7.781  0.6612 -2.0618  0.0794
16929SOL     OW51980   1.441   3.939   5.336  0.1885 -0.0886  0.0253
16929SOL    HW151981   1.514   3.879   5.319 -0.4666 -0.6150 -0.9996
16929SOL    HW251982   1.465   3.982   5.418  1.1018 -1.0945  0.3133
16930SOL     OW51983   0.688   8.113   7.603 -0.4888  0.1463 -0.3359
16930SOL    HW151984   0.638   8.085   7.526 -0.9176 -1.7813  0.5801
16930SOL    HW251985   0.634   8.181   7.643  0.0304  1.6235 -2.0143
16931SOL     OW51986   4.398   4.432   8.208  0.7031 -0.4817 -0.1584
16931SOL    HW151987   4.364   4.516   8.176  4.8063  1.3666 -0.3968
16931SOL    HW251988   4.404   4.377   8.130  2.0720  0.7065 -0.9558
16932SOL     OW51989   6.320   6.236   1.332 -0.5407  0.2540 -0.5037
16932SOL    HW151990   6.383   6.306   1.347 -0.6203  0.3577 -0.6513
16932SOL    HW251991   6.244   6.261   1.383 -0.6071  0.3278 -0.6382
16933SOL     OW51992   8.457   0.948   3.749  0.1189 -0.1041 -0.2439
16933SOL    HW151993   8.522   0.951   3.819  0.5559 -1.3718 -0.5815
16933SOL    HW251994   8.440   0.855   3.735 -1.2116  0.1782 -0.6845
16934SOL     OW51995   0.988   7.689   8.538  0.4268 -0.1713 -0.4430
16934SOL    HW151996   1.073   7.683   8.495 -0.2590  1.3998 -2.1221
16934SOL    HW251997   0.930   7.636   8.484 -0.0170  0.0977 -0.2337
16935SOL     OW51998   2.064   0.313   0.750 -0.1061 -0.6198 -0.1760
16935SOL    HW151999   1.979   0.298   0.709  0.4723 -1.0351 -1.2553
16935SOL    HW252000   2.051   0.290   0.842 -1.1024 -0.8656 -0.3684
16936SOL     OW52001   2.547   2.446   2.763 -0.2100 -0.5074 -0.0467
16936SOL    HW152002   2.615   2.510   2.742 -0.6895  0.3245  0.8385
16936SOL    HW252003   2.465   2.495   2.754 -0.5684 -0.9123  0.8935
16937SOL     OW52004   5.062   2.161   5.650 -0.2004  0.5473 -0.2494
16937SOL    HW152005   5.101   2.219   5.585  0.1526 -0.8306 -1.3234
16937SOL    HW252006   4.970   2.156   5.626 -0.1638  0.4069 -0.3636
16938SOL     OW52007   0.660   2.671   6.317  0.0676  0.0161  0.1656
16938SOL    HW152008   0.707   2.594   6.349 -0.7463 -0.5469  0.0410
16938SOL    HW252009   0.641   2.722   6.396  1.4789  0.6013  0.1439
16939SOL     OW52010   3.566   4.262   4.952 -0.2277 -0.2900 -0.0382
16939SOL    HW152011   3.590   4.354   4.937  1.5706 -0.8189 -0.6569
16939SOL    HW252012   3.604   4.241   5.038 -0.4032 -0.5322 -0.0183
16940SOL     OW52013   3.083   5.691   2.465 -0.1182  0.1278  0.5339
16940SOL    HW152014   3.126   5.773   2.489 -0.5486  0.8122 -0.9587
16940SOL    HW252015   2.997   5.718   2.432 -0.3913 -0.9535  0.3282
16941SOL     OW52016   7.451   8.122   2.632  0.0301 -0.0185  0.2058
16941SOL    HW152017   7.525   8.171   2.669 -1.0253  1.4553  0.4801
16941SOL    HW252018   7.489   8.069   2.563  1.3788  0.5345  0.4911
16942SOL     OW52019   1.602   5.694   1.569 -0.0407  0.1642  0.6137
16942SOL    HW152020   1.646   5.711   1.486  1.4843 -0.5785  1.2362
16942SOL    HW252021   1.552   5.774   1.587  3.3974  2.3786  1.3038
16943SOL     OW52022   0.293   1.164   8.374 -0.1631 -0.5538 -0.3838
16943SOL    HW152023   0.312   1.088   8.319  0.0202 -3.7633  3.5929
16943SOL    HW252024   0.369   1.171   8.431 -1.0827  1.3574  0.7019
16944SOL     OW52025   6.846   8.347   3.265  0.8505  0.0949  0.2057
16944SOL    HW152026   6.770   8.399   3.291  0.5563  0.0966 -0.6470
16944SOL    HW252027   6.843   8.345   3.170  1.3661 -0.7321  0.1962
16945SOL     OW52028   1.804   5.664   2.461  0.1392  0.0318  0.0805
16945SOL    HW152029   1.709   5.657   2.450  0.2008 -1.6858  0.2994
16945SOL    HW252030   1.817   5.671   2.555  0.2491 -0.7473  0.1340
16946SOL     OW52031   4.486   1.947   6.660 -0.0911  0.3747  0.4443
16946SOL    HW152032   4.500   2.033   6.620 -0.1751 -0.4066 -1.3667
16946SOL    HW252033   4.562   1.935   6.717 -0.2234  1.7594  0.9491
16947SOL     OW52034   6.944   0.347   5.224 -0.0937 -0.4771 -0.6638
16947SOL    HW152035   7.003   0.423   5.225 -1.1431  0.3736 -0.9921
16947SOL    HW252036   6.998   0.276   5.190  0.4890  0.5146 -1.9163
16948SOL     OW52037   7.088   4.267   1.065  0.2836  0.0207 -0.4073
16948SOL    HW152038   7.142   4.334   1.025  0.5326  1.0061  1.4792
16948SOL    HW252039   7.124   4.184   1.033 -0.1321  0.7182 -2.8860
16949SOL     OW52040   1.455   0.292   0.834 -0.3130 -0.3228  0.0442
16949SOL    HW152041   1.483   0.271   0.923 -1.2342 -0.7320  0.2553
16949SOL    HW252042   1.377   0.347   0.847 -1.0700 -1.2347 -0.4898
16950SOL     OW52043   1.943   1.967   4.386  0.1262  0.1794 -0.2702
16950SOL    HW152044   1.991   2.046   4.361  0.0557  0.3017 -0.0229
16950SOL    HW252045   1.995   1.895   4.350 -1.0190  0.3943 -2.5659
16951SOL     OW52046   2.345   6.164   2.234  0.2315 -0.2688 -0.1544
16951SOL    HW152047   2.357   6.113   2.154 -0.9433  1.3829 -1.4690
16951SOL    HW252048   2.385   6.249   2.213 -1.5390  0.7365  0.3582
16952SOL     OW52049   5.392   1.055   7.871  0.2367 -0.3684  0.0965
16952SOL    HW152050   5.323   0.995   7.842  0.9292 -1.7840  1.2515
16952SOL    HW252051   5.347   1.120   7.924 -0.3692 -0.5657 -0.1655
16953SOL     OW52052   2.728   5.632   6.300  0.5054 -0.6480  0.6491
16953SOL    HW152053   2.745   5.723   6.275 -0.4692 -0.2238  1.4829
16953SOL    HW252054   2.774   5.581   6.233 -0.2883  0.4498 -0.8002
16954SOL     OW52055   8.604   8.507   0.056 -0.5548  0.5097 -0.2460
16954SOL    HW152056   8.575   8.561   0.130  0.9514  1.3732 -0.2575
16954SOL    HW252057   8.592   8.564  -0.021 -1.1710 -0.0316 -0.5604
16955SOL     OW52058   4.314   2.789   5.166  0.1343 -0.7141  0.3541
16955SOL    HW152059   4.394   2.842   5.164 -0.6428  0.4844 -0.6582
16955SOL    HW252060   4.304   2.759   5.076 -0.5525 -0.8576  0.4799
16956SOL     OW52061   5.507   7.334   1.234 -0.0566 -0.0717  0.4604
16956SOL    HW152062   5.467   7.376   1.310  0.3889  2.2092 -0.4589
16956SOL    HW252063   5.436   7.283   1.195 -0.5261 -0.5451  1.8919
16957SOL     OW52064   4.926   5.365   6.941 -0.3582 -0.2160 -0.4272
16957SOL    HW152065   4.964   5.425   6.877  0.5490  0.3892  0.6395
16957SOL    HW252066   4.931   5.279   6.900  0.5733  0.1023 -1.0108
16958SOL     OW52067   0.970   1.062   4.167 -0.3670  0.1852 -0.3282
16958SOL    HW152068   0.877   1.083   4.180 -0.2028  0.5726  0.3040
16958SOL    HW252069   0.982   0.978   4.211 -0.5778 -0.2460 -1.0753
16959SOL     OW52070   6.010   2.687   6.511  0.1029 -0.3511 -0.2927
16959SOL    HW152071   5.928   2.723   6.544  1.4616  0.3422  2.6017
16959SOL    HW252072   6.065   2.674   6.589  2.7999 -0.6727 -2.0833
16960SOL     OW52073   7.748   0.812   7.209 -0.6250 -0.6071 -0.2576
16960SOL    HW152074   7.801   0.735   7.190 -1.7976 -1.3725 -0.5217
16960SOL    HW252075   7.670   0.777   7.252 -1.7508  0.2912 -1.5032
16961SOL     OW52076   2.876   0.058   8.192  0.4546 -0.4097  0.0898
16961SOL    HW152077   2.792   0.013   8.183 -0.5259  0.8990  1.9928
16961SOL    HW252078   2.917   0.017   8.268  0.5933  0.3125  0.4189
16962SOL     OW52079   1.745   0.716   7.698 -0.2718 -0.0152  0.4178
16962SOL    HW152080   1.685   0.674   7.759 -1.0090  0.9782  0.4216
16962SOL    HW252081   1.757   0.804   7.733  1.9790 -0.4700  0.9254
16963SOL     OW52082   0.583   0.956   4.418  0.2673 -0.3780 -0.4653
16963SOL    HW152083   0.586   0.935   4.325  2.6934  0.2547 -0.5988
16963SOL    HW252084   0.585   0.872   4.462 -0.1318 -0.6570 -0.9642
16964SOL     OW52085   7.267   2.000   8.235  0.1600  0.6992 -0.0277
16964SOL    HW152086   7.316   1.926   8.197  0.4357  0.4518  0.7878
16964SOL    HW252087   7.209   2.029   8.165  0.9647  0.5314 -0.7812
16965SOL     OW52088   7.308   3.533   2.866 -0.4304  0.2035  0.0168
16965SOL    HW152089   7.384   3.560   2.917 -1.1837  0.9383  0.7816
16965SOL    HW252090   7.324   3.566   2.778 -0.2490  1.0971  0.3798
16966SOL     OW52091   2.958   2.707   5.685 -0.4293  0.0659  1.1759
16966SOL    HW152092   2.920   2.768   5.747 -2.6470 -1.8637  1.8631
16966SOL    HW252093   2.885   2.680   5.629  0.7553 -0.9514  0.0403
16967SOL     OW52094   6.657   2.656   2.442 -0.2064  0.2283  0.9664
16967SOL    HW152095   6.668   2.750   2.460  0.1542  0.6325 -1.1895
16967SOL    HW252096   6.699   2.642   2.358  0.9172 -2.1768  1.8408
16968SOL     OW52097   3.598   2.773   2.939 -0.0047 -0.0499 -0.0790
16968SOL    HW152098   3.581   2.841   3.004 -1.7480  0.1442 -0.6747
16968SOL    HW252099   3.518   2.721   2.938  1.0573 -1.7450 -0.1028
16969SOL     OW52100   8.563   2.406   7.276  0.0184 -0.1980 -0.2490
16969SOL    HW152101   8.639   2.464   7.280 -0.1700 -0.0215  1.2361
16969SOL    HW252102   8.499   2.453   7.222  1.2479 -0.7524 -2.3329
16970SOL     OW52103   5.691   0.106   2.702 -0.2749  0.0255 -0.3262
16970SOL    HW152104   5.773   0.156   2.704 -0.9794  1.2770 -1.1817
16970SOL    HW252105   5.665   0.097   2.793  0.5042  0.1355 -0.0870
16971SOL     OW52106   7.192   6.069   8.088 -0.2670 -0.0918  0.5206
16971SOL    HW152107   7.128   5.997   8.083 -0.3739  0.0238  0.2016
16971SOL    HW252108   7.139   6.146   8.106 -0.2891  0.1002 -0.3139
16972SOL     OW52109   5.213   0.481   2.109 -0.6851  0.2070  0.2225
16972SOL    HW152110   5.133   0.502   2.157 -0.0830  1.4062  0.7186
16972SOL    HW252111   5.246   0.401   2.151 -1.1486  0.1960  0.5704
16973SOL     OW52112   7.618   5.230   5.022 -0.0456  0.0397 -0.2453
16973SOL    HW152113   7.599   5.239   5.116  0.8426  0.8192 -0.1261
16973SOL    HW252114   7.645   5.138   5.012 -2.7648 -0.8510 -0.2615
16974SOL     OW52115   1.465   3.177   0.124  0.1053 -0.5861 -0.6109
16974SOL    HW152116   1.408   3.157   0.049 -1.5575 -1.4243  0.7926
16974SOL    HW252117   1.499   3.265   0.105  0.9226 -1.3330 -2.9961
16975SOL     OW52118   3.159   0.657   5.065 -0.4746 -0.2881 -0.1395
16975SOL    HW152119   3.198   0.729   5.114 -1.8562  0.2674  0.1917
16975SOL    HW252120   3.066   0.658   5.090 -0.7696 -1.3900 -1.0907
16976SOL     OW52121   7.176   5.878   1.866  0.4059 -0.5136  0.2854
16976SOL    HW152122   7.086   5.881   1.835  0.2174  1.4415  0.9042
16976SOL    HW252123   7.181   5.797   1.917 -0.2923 -1.8821 -1.6887
16977SOL     OW52124   1.725   7.959   4.593  0.1136  0.2369  0.2370
16977SOL    HW152125   1.735   7.919   4.507  0.5874  1.6157 -0.3761
16977SOL    HW252126   1.813   7.957   4.631 -0.1027 -0.4142  0.7323
16978SOL     OW52127   1.560   5.186   6.998 -0.4419  0.3093  0.6114
16978SOL    HW152128   1.629   5.236   7.042  0.6829 -1.1604  0.5917
16978SOL    HW252129   1.495   5.170   7.067 -0.9224  1.8943  0.5752
16979SOL     OW52130   8.022   1.028   1.610  0.2652 -0.1557 -0.2081
16979SOL    HW152131   8.102   0.979   1.623  0.6827  0.2978 -0.9411
16979SOL    HW252132   7.955   0.962   1.593  0.5258 -0.5258  0.1967
16980SOL     OW52133   0.533   8.254   2.808 -0.1577  0.2751 -0.3059
16980SOL    HW152134   0.587   8.179   2.782 -1.1631 -2.2135  3.9003
16980SOL    HW252135   0.458   8.252   2.748  1.2021 -0.2077 -2.0735
16981SOL     OW52136   0.603   4.577   1.128 -0.4943  0.1220  0.3503
16981SOL    HW152137   0.559   4.642   1.074 -1.6058 -0.1331  0.9144
16981SOL    HW252138   0.641   4.627   1.200  0.3796  0.3724 -0.2649
16982SOL     OW52139   7.407   3.123   3.795  0.4242  0.1000 -0.1419
16982SOL    HW152140   7.322   3.141   3.755  0.0350 -2.2839 -0.5140
16982SOL    HW252141   7.439   3.045   3.750  2.3224  0.2850  0.7764
16983SOL     OW52142   2.188   4.857   0.336 -0.2079  0.2356  0.4142
16983SOL    HW152143   2.122   4.882   0.401 -1.0580 -0.4785 -0.1460
16983SOL    HW252144   2.137   4.839   0.257  0.7924  0.9478 -0.4190
16984SOL     OW52145   2.346   0.577   6.112 -0.3420  0.4573 -0.5192
16984SOL    HW152146   2.268   0.546   6.066 -0.1695 -1.3174  0.2609
16984SOL    HW252147   2.314   0.642   6.174 -1.6834 -1.8545  1.4061
16985SOL     OW52148   5.968   3.621   3.801 -0.3104  0.5965 -0.1395
16985SOL    HW152149   5.903   3.691   3.808  0.3521  1.2822 -0.6228
16985SOL    HW252150   6.037   3.647   3.862  0.1562  0.6182 -0.6655
16986SOL     OW52151   2.817   2.492   2.140  0.2524  0.2061 -0.2371
16986SOL    HW152152   2.884   2.548   2.179 -1.0561  0.0724  2.4198
16986SOL    HW252153   2.862   2.410   2.121  1.2588  0.7626 -0.3337
16987SOL     OW52154   1.209   3.262   4.391  0.6644 -0.5234  0.0126
16987SOL    HW152155   1.274   3.297   4.453 -0.3082 -1.0885  1.4241
16987SOL    HW252156   1.136   3.325   4.396  0.5694 -0.5910 -0.5451
16988SOL     OW52157   4.054   5.154   7.611  0.2816 -0.2494  0.4135
16988SOL    HW152158   4.121   5.214   7.643 -1.3238  1.1968  1.2144
16988SOL    HW252159   4.058   5.079   7.671  1.8866 -0.6954 -0.2189
16989SOL     OW52160   7.058   6.105   0.336 -0.0101 -0.0323  0.0686
16989SOL    HW152161   7.057   6.057   0.419 -1.5886  0.2491  0.2350
16989SOL    HW252162   7.145   6.145   0.333  0.1849 -0.2998  1.4308
16990SOL     OW52163   6.218   8.006   2.949  0.6709 -0.3054  0.6215
16990SOL    HW152164   6.130   8.038   2.930  0.0254 -2.2038  0.1952
16990SOL    HW252165   6.224   7.924   2.901  2.1611 -0.9196  1.7885
16991SOL     OW52166   3.458   5.615   2.900 -0.0937  0.4877 -0.1737
16991SOL    HW152167   3.394   5.554   2.936  1.3569 -2.1039 -1.6309
16991SOL    HW252168   3.423   5.638   2.814 -0.7420  2.0077  0.4532
16992SOL     OW52169   6.333   3.803   4.594  0.1367 -0.8361  0.9430
16992SOL    HW152170   6.345   3.730   4.533 -2.1127 -0.8028  0.3473
16992SOL    HW252171   6.336   3.763   4.680  3.0366 -0.9370  0.8896
16993SOL     OW52172   4.180   1.472   4.564  0.0691  0.0186  0.4331
16993SOL    HW152173   4.206   1.424   4.643 -0.3119  0.6561  0.9536
16993SOL    HW252174   4.234   1.550   4.564  0.6997 -0.4052 -0.4255
16994SOL     OW52175   1.189   0.774   2.703 -0.0321 -0.1668 -0.1008
16994SOL    HW152176   1.118   0.761   2.766 -1.4789  1.7980 -1.1700
16994SOL    HW252177   1.229   0.857   2.729  1.2345 -0.7473 -0.1247
16995SOL     OW52178   7.130   3.266   3.078 -0.0982 -0.3754 -0.4196
16995SOL    HW152179   7.118   3.325   3.003 -0.6760 -3.8074 -3.2707
16995SOL    HW252180   7.041   3.243   3.105  0.1086 -1.3511 -0.5470
16996SOL     OW52181   5.911   2.421   6.981  0.3012 -0.1457 -0.1954
16996SOL    HW152182   5.852   2.473   7.036  2.6151  1.6761  0.7641
16996SOL    HW252183   5.936   2.347   7.036 -0.4677 -0.4948 -0.3104
16997SOL     OW52184   7.114   5.896   1.486  0.1965  0.0898 -0.4353
16997SOL    HW152185   7.114   5.830   1.417 -0.6668  1.4446 -1.7753
16997SOL    HW252186   7.196   5.880   1.533  0.0853 -1.8265 -0.7801
16998SOL     OW52187   0.175   7.004   6.625  0.3818 -0.4356 -0.4423
16998SOL    HW152188   0.142   6.914   6.620 -0.7674 -0.0229 -0.5075
16998SOL    HW252189   0.225   7.006   6.707  2.6186 -1.8069 -1.6540
16999SOL     OW52190   7.621   4.995   5.496 -0.2117 -0.8739 -0.7147
16999SOL    HW152191   7.693   5.026   5.552  0.8893 -1.6116 -1.6636
16999SOL    HW252192   7.542   5.016   5.544  0.6906 -1.5084  1.1467
17000SOL     OW52193   1.746   8.360   4.860 -0.5395 -0.1740  0.3326
17000SOL    HW152194   1.740   8.297   4.788 -1.6295  0.0268  0.2252
17000SOL    HW252195   1.664   8.347   4.909 -0.3696  0.5534  0.8184
17001SOL     OW52196   7.753   0.271   2.738 -0.1940 -0.1068 -0.0288
17001SOL    HW152197   7.665   0.307   2.739 -1.0853 -2.0586 -1.8520
17001SOL    HW252198   7.805   0.336   2.689 -1.1138  0.0212 -0.8557
17002SOL     OW52199   0.862   3.996   1.886 -0.5343  0.2074  0.3962
17002SOL    HW152200   0.880   4.006   1.793 -1.9000  2.2068  0.2843
17002SOL    HW252201   0.826   3.908   1.894  1.5396 -0.8199 -0.5657
17003SOL     OW52202   5.961   6.736   0.922  0.3057  0.0163 -0.8764
17003SOL    HW152203   5.915   6.692   0.993  0.9240  1.0548  0.2173
17003SOL    HW252204   5.893   6.759   0.859 -0.7358  1.4614  0.6644
17004SOL     OW52205   0.875   7.939   0.003 -0.1346  0.2345  0.0308
17004SOL    HW152206   0.935   8.002   0.044 -0.9518  0.8895  0.2283
17004SOL    HW252207   0.921   7.855   0.011  1.0734  0.8166 -0.4383
17005SOL     OW52208   1.634   1.467   1.005 -0.0112 -0.1299 -0.1024
17005SOL    HW152209   1.543   1.444   1.026 -0.1718  0.5023 -0.0854
17005SOL    HW252210   1.650   1.427   0.919 -0.3141 -0.2101 -0.1222
17006SOL     OW52211   1.014   3.419   3.476 -0.0731  0.3385 -0.3534
17006SOL    HW152212   1.036   3.350   3.538 -2.5607 -0.3076 -0.0929
17006SOL    HW252213   0.958   3.376   3.411  1.0666  1.3883 -2.1261
17007SOL     OW52214   2.008   3.611   4.794  0.2564 -0.1720 -0.4173
17007SOL    HW152215   2.103   3.620   4.806  0.3252 -0.4985 -0.7023
17007SOL    HW252216   1.971   3.683   4.846  0.6010 -0.7481  0.6764
17008SOL     OW52217   3.892   7.845   7.585  0.5439 -0.2500 -0.5549
17008SOL    HW152218   3.832   7.785   7.542  1.0141  0.0880 -1.7203
17008SOL    HW252219   3.863   7.932   7.558 -1.2816  0.2669  2.5654
17009SOL     OW52220   2.734   3.132   2.296 -0.0345  0.1622 -0.0536
17009SOL    HW152221   2.654   3.159   2.342  0.7883  1.5710  0.6183
17009SOL    HW252222   2.797   3.202   2.315  0.7106  0.1916 -2.3633
17010SOL     OW52223   3.195   3.108   4.335 -0.1225 -0.1197  0.4137
17010SOL    HW152224   3.239   3.025   4.353 -1.1603 -1.3069 -2.0163
17010SOL    HW252225   3.101   3.087   4.343 -0.4397  0.4638 -1.3629
17011SOL     OW52226   3.943   5.506   5.397 -0.6091  0.6116  0.3011
17011SOL    HW152227   3.976   5.576   5.340 -1.0750  0.2726 -0.3963
17011SOL    HW252228   3.856   5.486   5.363 -0.3087 -0.6172  0.2115
17012SOL     OW52229   4.169   7.559   8.509  0.0373  0.1013 -0.3975
17012SOL    HW152230   4.125   7.534   8.428  0.7962  2.9608 -1.8031
17012SOL    HW252231   4.099   7.562   8.574 -0.7505 -1.3164 -1.1321
17013SOL     OW52232   7.738   1.915   0.172  0.5773 -0.0351  0.1949
17013SOL    HW152233   7.828   1.945   0.187 -0.3285  1.7097  3.0513
17013SOL    HW252234   7.698   1.915   0.259 -2.2217 -0.6773 -0.9690
17014SOL     OW52235   0.221   4.559   7.099 -0.0064  0.2314  0.1719
17014SOL    HW152236   0.164   4.541   7.174 -0.5282 -2.4638 -0.7445
17014SOL    HW252237   0.286   4.489   7.101  0.2988  0.4216 -1.5433
17015SOL     OW52238   7.442   2.086   3.360 -0.3613 -0.3879 -0.0539
17015SOL    HW152239   7.363   2.081   3.415 -0.4441 -0.5752 -0.1873
17015SOL    HW252240   7.414   2.050   3.276 -0.1427 -0.4147 -0.1141
17016SOL     OW52241   0.598   5.196   5.359  0.0904 -0.0997  0.0800
17016SOL    HW152242   0.594   5.113   5.407 -1.4375 -0.5054 -0.6851
17016SOL    HW252243   0.624   5.260   5.425 -2.1355 -0.6035  1.5649
17017SOL     OW52244   7.112   1.659   8.247 -0.1027  0.3188 -0.2476
17017SOL    HW152245   7.195   1.634   8.288  0.1446 -1.4978 -1.7191
17017SOL    HW252246   7.099   1.750   8.274  2.1885  0.5540  0.3076
17018SOL     OW52247   1.097   2.338   1.273 -0.3533  0.2058  0.1442
17018SOL    HW152248   1.147   2.319   1.352 -0.6395 -1.0796  0.0334
17018SOL    HW252249   1.041   2.412   1.297 -0.3052 -0.0554  1.0885
17019SOL     OW52250   4.884   3.234   0.383 -0.2980  0.8710  0.0274
17019SOL    HW152251   4.839   3.217   0.466 -1.1870  0.3211 -0.5487
17019SOL    HW252252   4.909   3.148   0.351 -0.5049  1.0291 -0.5709
17020SOL     OW52253   1.988   4.022   6.964  0.7923  0.2853  0.2925
17020SOL    HW152254   1.977   3.927   6.959 -0.6256  0.4947 -2.1632
17020SOL    HW252255   1.901   4.058   6.945  1.4874  2.0817  0.2821
17021SOL     OW52256   1.296   1.999   7.635 -0.2880  0.0278  0.6098
17021SOL    HW152257   1.331   2.061   7.571  2.1819 -1.3245  0.5020
17021SOL    HW252258   1.201   2.007   7.628 -0.0621  2.8155 -0.2934
17022SOL     OW52259   2.838   4.010   6.794  0.0149  0.0450  0.2596
17022SOL    HW152260   2.784   3.931   6.796 -0.0888  0.1234  0.6399
17022SOL    HW252261   2.777   4.081   6.779 -0.0443  0.1740  1.0494
17023SOL     OW52262   2.831   7.394   6.812  0.2436  0.2489 -0.2487
17023SOL    HW152263   2.871   7.478   6.832 -0.0651  0.3346  0.0258
17023SOL    HW252264   2.748   7.416   6.769  1.2130  0.0780 -2.3569
17024SOL     OW52265   6.852   4.095   4.761  0.0331  0.1464 -0.0054
17024SOL    HW152266   6.771   4.073   4.807 -1.0910  4.8930  0.7821
17024SOL    HW252267   6.888   4.170   4.809  4.5725 -1.2161 -0.8052
17025SOL     OW52268   0.251   4.324   4.255  0.0049  0.5103 -0.7295
17025SOL    HW152269   0.270   4.255   4.192 -1.1540  1.0092 -1.6766
17025SOL    HW252270   0.283   4.404   4.213 -0.6244  0.8264 -0.6251
17026SOL     OW52271   0.674   1.930   1.976 -0.2232  0.2245  0.6645
17026SOL    HW152272   0.696   1.853   1.922  0.0683 -0.1872  1.3607
17026SOL    HW252273   0.583   1.949   1.953  1.0642  2.8543 -3.3884
17027SOL     OW52274   7.358   7.150   0.668 -0.1127 -0.0448 -0.5987
17027SOL    HW152275   7.366   7.151   0.763 -1.3432 -1.3587 -0.4358
17027SOL    HW252276   7.334   7.059   0.647 -1.5312  0.5971 -1.9822
17028SOL     OW52277   8.498   1.848   5.230  0.0285  0.7242 -0.3305
17028SOL    HW152278   8.586   1.842   5.266 -0.1728  2.0493  0.4641
17028SOL    HW252279   8.499   1.926   5.175 -0.5411  0.5299 -0.6290
17029SOL     OW52280   6.685   6.203   5.025 -0.0449 -0.2639 -0.1341
17029SOL    HW152281   6.679   6.155   5.108  1.2389 -0.7174 -0.2793
17029SOL    HW252282   6.604   6.253   5.021  1.2764  2.5382  3.1100
17030SOL     OW52283   4.380   5.473   5.885  0.0934  0.1251  0.2093
17030SOL    HW152284   4.445   5.487   5.817 -0.5395  1.3219 -0.1731
17030SOL    HW252285   4.420   5.409   5.943  0.5469 -1.0883 -1.3931
17031SOL     OW52286   3.081   1.805   2.481  0.0061  0.4203  0.2300
17031SOL    HW152287   3.111   1.818   2.571 -1.7103  3.2952  0.5216
17031SOL    HW252288   3.124   1.874   2.431 -0.1084 -0.2984 -0.8902
17032SOL     OW52289   2.964   3.831   3.629 -0.0883 -0.6186  0.6315
17032SOL    HW152290   3.018   3.761   3.666  0.8749 -0.4532 -0.3882
17032SOL    HW252291   2.874   3.801   3.640  0.1625 -0.6955  2.7936
17033SOL     OW52292   6.830   4.356   2.651  0.7993 -0.6239 -0.1525
17033SOL    HW152293   6.838   4.347   2.556  3.0836  2.8088 -0.4565
17033SOL    HW252294   6.741   4.389   2.665 -0.1071 -2.6346 -0.8705
17034SOL     OW52295   5.423   2.678   5.593  0.2105  0.3622  0.0136
17034SOL    HW152296   5.350   2.709   5.647 -0.7967  0.9565 -1.5928
17034SOL    HW252297   5.430   2.743   5.523  0.1690 -1.3224 -1.6480
17035SOL     OW52298   2.464   1.760   0.818 -0.1793 -0.5939  0.1053
17035SOL    HW152299   2.540   1.711   0.849  0.4140  1.2415  1.7632
17035SOL    HW252300   2.404   1.762   0.892 -0.5528  0.4359 -0.2063
17036SOL     OW52301   7.640   1.752   7.738  0.5278  0.1453 -0.2543
17036SOL    HW152302   7.674   1.805   7.810  0.3567 -0.8670  0.6064
17036SOL    HW252303   7.716   1.703   7.706  0.5249  0.3102 -0.5226
17037SOL     OW52304   7.730   6.764   3.796 -0.3583  0.7411  0.5837
17037SOL    HW152305   7.648   6.723   3.824 -0.5972  1.0289  0.3213
17037SOL    HW252306   7.797   6.698   3.811 -0.6119  0.5757  0.9903
17038SOL     OW52307   2.969   5.123   8.585  0.7046 -0.4647 -0.5298
17038SOL    HW152308   2.993   5.124   8.678  0.7800 -0.8935 -0.5404
17038SOL    HW252309   2.874   5.138   8.584  0.8295  0.3672 -0.4364
17039SOL     OW52310   3.699   2.893   5.244  0.5071 -0.2088 -0.4561
17039SOL    HW152311   3.627   2.829   5.239 -0.3529  0.7841 -1.1149
17039SOL    HW252312   3.763   2.862   5.180 -0.3687  0.1193 -1.5333
17040SOL     OW52313   3.897   6.572   1.074 -0.0534 -0.0292 -0.1217
17040SOL    HW152314   3.853   6.637   1.129 -1.2785  1.4651 -2.6657
17040SOL    HW252315   3.983   6.611   1.057 -0.4301  0.5229 -0.8533
17041SOL     OW52316   3.574   6.984   3.997 -0.0605 -0.4838 -0.1249
17041SOL    HW152317   3.563   7.013   4.088 -0.7945 -3.1564  0.7235
17041SOL    HW252318   3.593   6.891   4.004 -0.8080 -0.9032 -2.7664
17042SOL     OW52319   3.936   6.951   7.634  0.5424  0.1791 -0.0041
17042SOL    HW152320   3.855   6.955   7.583  1.5483 -1.3399 -1.8462
17042SOL    HW252321   3.939   7.035   7.680 -2.5522 -0.1103  0.9624
17043SOL     OW52322   4.742   1.610   2.434  0.3557 -0.5791 -0.2703
17043SOL    HW152323   4.686   1.688   2.437  2.4369  1.0027  0.7655
17043SOL    HW252324   4.700   1.552   2.372 -2.3022  0.5689  0.3233
17044SOL     OW52325   4.859   2.932   1.137  0.2893 -0.2709 -0.0011
17044SOL    HW152326   4.806   2.990   1.192 -0.5791  0.5285 -1.6153
17044SOL    HW252327   4.850   2.846   1.178 -0.3331  0.2914  1.0988
17045SOL     OW52328   3.158   5.267   0.843 -0.1838 -0.0552 -0.2701
17045SOL    HW152329   3.144   5.351   0.887  2.3307  0.3167 -0.0050
17045SOL    HW252330   3.079   5.217   0.861 -1.6315  2.1180 -0.1704
17046SOL     OW52331   7.492   1.928   7.045 -0.6236 -0.1368 -0.5130
17046SOL    HW152332   7.491   1.924   6.949 -0.1432 -0.1684 -0.5177
17046SOL    HW252333   7.455   2.014   7.065  0.2544  0.3179 -0.7673
17047SOL     OW52334   6.310   7.305   6.410 -0.1035 -0.1319 -0.6896
17047SOL    HW152335   6.307   7.209   6.417 -2.0960  0.0077  1.3259
17047SOL    HW252336   6.246   7.326   6.343 -1.4277 -0.1644  0.5019
17048SOL     OW52337   4.994   5.356   1.431 -0.5346 -0.4848 -0.7768
17048SOL    HW152338   5.018   5.442   1.465 -1.5082 -0.7481  0.6660
17048SOL    HW252339   5.077   5.311   1.416 -0.0467  0.3304 -0.5409
17049SOL     OW52340   3.946   4.516   4.869  0.0677  0.1892 -0.3069
17049SOL    HW152341   4.018   4.474   4.916  0.1837  2.1170  1.3338
17049SOL    HW252342   3.952   4.609   4.891 -2.2139  0.6005 -1.0636
17050SOL     OW52343   4.948   6.511   2.507 -0.6329  0.0975  0.3482
17050SOL    HW152344   4.987   6.589   2.546 -0.7315 -0.3345  1.3244
17050SOL    HW252345   4.868   6.543   2.464 -0.6530  0.5364  0.7073
17051SOL     OW52346   8.343   1.539   3.104 -0.3643  0.2669  0.2368
17051SOL    HW152347   8.412   1.565   3.043  0.0164  1.3173  1.0840
17051SOL    HW252348   8.270   1.598   3.086 -0.6851 -0.1866  0.0215
17052SOL     OW52349   5.418   1.853   1.267  0.6129  0.0746  0.1935
17052SOL    HW152350   5.346   1.914   1.253 -1.1408 -2.3687 -3.0464
17052SOL    HW252351   5.402   1.814   1.353 -0.6623  1.1615  0.4648
17053SOL     OW52352   2.973   5.093   4.180  0.3827  0.0760 -0.3713
17053SOL    HW152353   2.938   5.005   4.168 -0.4847  0.3194  0.2388
17053SOL    HW252354   3.061   5.090   4.142 -0.1522 -0.6655 -1.6026
17054SOL     OW52355   2.534   5.817   1.195  0.2633  0.0755  0.0934
17054SOL    HW152356   2.591   5.833   1.120  1.4017  0.3630  0.9984
17054SOL    HW252357   2.554   5.888   1.256 -1.3854  0.4342  0.2706
17055SOL     OW52358   3.582   6.708   0.207 -0.2832 -0.1858 -0.5110
17055SOL    HW152359   3.610   6.665   0.288 -0.0129 -0.9622 -1.0085
17055SOL    HW252360   3.555   6.796   0.235  1.1056  0.0378  0.2278
17056SOL     OW52361   4.931   4.883   1.837 -0.6088 -0.0460 -0.3042
17056SOL    HW152362   4.945   4.808   1.779  0.1022  0.2892 -0.5854
17056SOL    HW252363   4.836   4.896   1.837 -0.5817  0.6048 -2.2976
17057SOL     OW52364   1.443   7.424   2.447 -0.2844 -0.3618 -0.1432
17057SOL    HW152365   1.434   7.420   2.543 -1.8784 -1.5852 -0.2980
17057SOL    HW252366   1.379   7.490   2.420  1.4209  1.3267 -0.2869
17058SOL     OW52367   7.946   2.528   0.994  0.1386  0.1604  0.2255
17058SOL    HW152368   7.984   2.444   1.022  1.0888  0.9390  1.3985
17058SOL    HW252369   7.908   2.565   1.074 -2.9083 -0.4117 -0.8336
17059SOL     OW52370   0.135   8.266   3.798  0.0583  0.2445  0.4182
17059SOL    HW152371   0.045   8.297   3.806 -0.2532 -0.8840  1.4694
17059SOL    HW252372   0.130   8.188   3.743  0.5083  0.5877 -0.1301
17060SOL     OW52373   2.292   1.470   4.865  0.0302  0.5687 -0.0069
17060SOL    HW152374   2.268   1.378   4.877 -1.3145  1.1142  2.0834
17060SOL    HW252375   2.210   1.518   4.877  1.0948  2.1654  1.3471
17061SOL     OW52376   8.415   5.577   5.643 -0.4451 -0.3664 -0.0564
17061SOL    HW152377   8.424   5.661   5.598 -1.9567 -0.3048 -0.3133
17061SOL    HW252378   8.505   5.550   5.662  0.1525  0.4996 -1.4453
17062SOL     OW52379   6.482   7.964   5.259 -0.5198  0.4357  0.3521
17062SOL    HW152380   6.401   7.992   5.302 -0.6088 -0.1163  0.5568
17062SOL    HW252381   6.454   7.939   5.171 -0.8274 -1.0649  0.8480
17063SOL     OW52382   4.751   1.250   0.461 -0.2526  0.2406  0.0659
17063SOL    HW152383   4.678   1.194   0.488  1.7307 -2.5448  0.0684
17063SOL    HW252384   4.829   1.203   0.489  1.6512  1.8956 -2.0415
17064SOL     OW52385   2.486   4.720   8.167 -0.4274  0.2805 -0.1300
17064SOL    HW152386   2.447   4.633   8.172 -1.2227  0.6793  1.3377
17064SOL    HW252387   2.580   4.704   8.160 -0.6073 -0.6946 -0.4106
17065SOL     OW52388   1.924   6.082   8.567  0.1583  0.2602 -0.3944
17065SOL    HW152389   1.882   6.039   8.641  1.8732 -1.0783 -0.1135
17065SOL    HW252390   1.871   6.058   8.491  0.0582 -0.8735  0.0166
17066SOL     OW52391   1.444   8.149   2.023 -0.3906 -0.1121 -0.4312
17066SOL    HW152392   1.429   8.146   1.929 -0.1400  0.7333 -0.5073
17066SOL    HW252393   1.475   8.061   2.045 -0.4907 -0.3276 -1.1308
17067SOL     OW52394   2.747   0.954   2.170 -0.6339  0.0026  0.1928
17067SOL    HW152395   2.686   0.951   2.243 -0.1473  0.1630  0.6145
17067SOL    HW252396   2.792   1.038   2.180 -0.5300  0.0061 -0.2669
17068SOL     OW52397   5.662   1.970   4.341  1.2470  0.0667 -0.0103
17068SOL    HW152398   5.724   1.994   4.410 -0.3126 -0.9472  1.8486
17068SOL    HW252399   5.669   1.874   4.336  0.3054  0.0021 -0.2112
17069SOL     OW52400   1.166   0.393   7.321  0.1507  0.0402 -0.9303
17069SOL    HW152401   1.077   0.383   7.355  0.6201 -0.7584  0.1574
17069SOL    HW252402   1.219   0.405   7.400  1.1331 -0.5634 -1.4856
17070SOL     OW52403   4.348   5.224   6.893  0.4255  0.2797  0.0628
17070SOL    HW152404   4.361   5.301   6.949 -1.0124  0.9748 -0.5343
17070SOL    HW252405   4.432   5.214   6.848  0.1111  2.6189 -1.2020
17071SOL     OW52406   2.746   6.068   2.081 -0.3847 -0.0142  0.4452
17071SOL    HW152407   2.665   6.020   2.065 -0.0176 -0.3180 -0.5645
17071SOL    HW252408   2.776   6.036   2.166 -0.8581 -0.5585  0.4142
17072SOL     OW52409   8.006   3.732   5.189  0.1904  0.1368 -0.0624
17072SOL    HW152410   7.956   3.790   5.247 -0.8715  0.7135 -1.4867
17072SOL    HW252411   7.962   3.648   5.194 -1.8940  0.9693 -2.3184
17073SOL     OW52412   1.279   5.921   1.546  0.4088  0.1086  0.4273
17073SOL    HW152413   1.367   5.936   1.579 -0.5308  1.0449  2.6859
17073SOL    HW252414   1.222   5.971   1.604 -1.7185 -1.1796 -0.4087
17074SOL     OW52415   2.478   5.963   3.910  0.4177  0.0750  0.1998
17074SOL    HW152416   2.481   6.054   3.939  1.8344 -0.2504  1.1772
17074SOL    HW252417   2.518   5.965   3.823  0.3200  0.4154  0.1607
17075SOL     OW52418   4.497   2.769   5.631  0.0766  0.1142 -1.4712
17075SOL    HW152419   4.562   2.766   5.561  0.2344  0.3799 -1.3368
17075SOL    HW252420   4.415   2.792   5.587  0.3893  1.3800 -1.4237
17076SOL     OW52421   7.234   6.802   0.461 -0.2522 -0.0396  0.2849
17076SOL    HW152422   7.167   6.735   0.473  0.5018 -0.5961  1.5951
17076SOL    HW252423   7.185   6.884   0.457 -1.2498 -0.6842 -2.0868
17077SOL     OW52424   5.692   6.045   6.858 -0.4845 -0.1916  0.2619
17077SOL    HW152425   5.717   6.137   6.862  0.8254 -0.3318 -2.1584
17077SOL    HW252426   5.603   6.045   6.823 -0.7279  0.1500  0.8698
17078SOL     OW52427   1.951   0.589   6.551 -0.2282  0.5055 -0.1079
17078SOL    HW152428   2.039   0.604   6.516  0.3463 -0.9492  0.5840
17078SOL    HW252429   1.965   0.527   6.623 -1.9585 -0.7718 -0.8041
17079SOL     OW52430   5.606   7.664   6.045 -0.0301 -0.0420  0.5908
17079SOL    HW152431   5.554   7.590   6.075 -0.5709  0.2538  0.4167
17079SOL    HW252432   5.653   7.694   6.122 -0.2255 -0.2323  0.7844
17080SOL     OW52433   5.493   7.258   3.768 -0.8054  0.4290  0.2091
17080SOL    HW152434   5.415   7.205   3.782 -0.8748  0.8135  1.3865
17080SOL    HW252435   5.477   7.338   3.819 -0.0921  0.9622 -0.3759
17081SOL     OW52436   4.626   6.427   0.407 -0.0625  0.2851  0.4047
17081SOL    HW152437   4.597   6.371   0.479 -0.2708  1.1301  0.9950
17081SOL    HW252438   4.716   6.399   0.389 -0.0829 -0.0708  0.8527
17082SOL     OW52439   5.410   3.650   3.448  0.2662 -0.1778  0.7329
17082SOL    HW152440   5.417   3.714   3.377  2.5099  1.2383  2.1021
17082SOL    HW252441   5.373   3.572   3.406  0.1685  1.0436 -1.6490
17083SOL     OW52442   0.222   7.779   8.193  0.9625  0.0506  0.0791
17083SOL    HW152443   0.201   7.872   8.181  2.3846  0.4832  0.7753
17083SOL    HW252444   0.244   7.747   8.106  1.9548  0.7634  0.0539
17084SOL     OW52445   5.731   8.040   2.790  0.2448 -0.0540 -0.1032
17084SOL    HW152446   5.766   8.072   2.706  1.9641  0.3516  0.7198
17084SOL    HW252447   5.637   8.037   2.777  0.4997 -0.5712 -2.2518
17085SOL     OW52448   5.326   3.471   6.623 -0.1692 -0.1704 -0.1738
17085SOL    HW152449   5.414   3.484   6.659  1.2495  0.3180 -3.4010
17085SOL    HW252450   5.267   3.498   6.692  2.2946  2.1141  1.2272
17086SOL     OW52451   4.922   7.115   5.733 -0.0439 -0.0720  0.3817
17086SOL    HW152452   4.924   7.068   5.817  0.4294 -0.3135  0.2435
17086SOL    HW252453   5.014   7.114   5.705  0.0509  1.3362  0.5987
17087SOL     OW52454   0.005   3.878   7.613  0.1191  0.3196  0.9147
17087SOL    HW152455  -0.008   3.789   7.646 -1.2212  0.1117 -0.0751
17087SOL    HW252456   0.088   3.906   7.652  0.4131 -1.2362  1.4995
17088SOL     OW52457   7.650   4.408   3.234  0.0948  0.3186 -0.0136
17088SOL    HW152458   7.617   4.496   3.220 -0.3695  0.0834 -0.4291
17088SOL    HW252459   7.739   4.410   3.200 -0.1520  0.4426 -0.6666
17089SOL     OW52460   7.264   3.367   6.474  0.1139 -0.1777 -0.0837
17089SOL    HW152461   7.219   3.401   6.396 -1.8407  0.0432  1.0758
17089SOL    HW252462   7.345   3.419   6.479  0.2564 -0.1498 -1.8840
17090SOL     OW52463   2.796   1.301   6.522  0.0774 -0.2596  0.4396
17090SOL    HW152464   2.702   1.304   6.540 -0.5006 -0.3433 -2.1861
17090SOL    HW252465   2.820   1.210   6.537 -0.1027 -0.1213  1.6848
17091SOL     OW52466   6.443   2.385   4.269 -0.0942 -0.2912 -0.7836
17091SOL    HW152467   6.500   2.427   4.333 -0.3062  0.2508 -0.9445
17091SOL    HW252468   6.483   2.299   4.254  0.6716  0.0683 -0.8785
17092SOL     OW52469   3.403   8.480   2.118  0.3389  0.5591 -0.1616
17092SOL    HW152470   3.368   8.551   2.172  0.9077  1.1769 -0.5970
17092SOL    HW252471   3.334   8.414   2.117  0.0010  0.8901  0.6571
17093SOL     OW52472   2.797   3.350   7.632  0.2001 -0.2720 -0.1238
17093SOL    HW152473   2.858   3.413   7.672 -1.3526  1.0391  0.3102
17093SOL    HW252474   2.789   3.380   7.541  0.2262 -0.4731 -0.1928
17094SOL     OW52475   6.118   5.178   4.549 -0.1317  0.1262  0.1758
17094SOL    HW152476   6.043   5.226   4.585 -0.4038 -0.0556 -0.1405
17094SOL    HW252477   6.155   5.237   4.483 -0.1965  0.0794  0.0984
17095SOL     OW52478   3.580   6.404   8.381  0.0189  0.8149 -0.1910
17095SOL    HW152479   3.543   6.426   8.467 -0.3007  0.2314 -0.1762
17095SOL    HW252480   3.545   6.471   8.322 -0.6169  0.5995 -0.0684
17096SOL     OW52481   2.045   4.072   2.149 -0.2434  0.0348  0.2280
17096SOL    HW152482   2.055   4.166   2.133 -0.5585  0.0651  0.1960
17096SOL    HW252483   1.969   4.066   2.207  0.0065 -0.1763  0.5363
17097SOL     OW52484   1.785   0.696   8.070 -0.0298 -0.7160 -0.3817
17097SOL    HW152485   1.718   0.751   8.029  0.4105 -0.0955 -0.2875
17097SOL    HW252486   1.763   0.698   8.164  0.9738  0.7366 -0.1432
17098SOL     OW52487   6.461   1.312   2.570  0.2022 -0.5837 -0.0716
17098SOL    HW152488   6.371   1.315   2.602  0.1435 -0.1849 -0.2588
17098SOL    HW252489   6.493   1.402   2.582 -0.2843 -0.0264 -2.4165
17099SOL     OW52490   4.968   6.000   4.537  0.4379  1.0649 -0.1160
17099SOL    HW152491   5.049   5.973   4.494 -0.0494 -0.0691 -0.3709
17099SOL    HW252492   4.970   6.095   4.535  0.5452  1.0772 -2.4834
17100SOL     OW52493   6.602   6.901   4.972 -0.2080  0.1018 -0.0676
17100SOL    HW152494   6.630   6.911   5.063  0.8586 -0.6205 -0.3072
17100SOL    HW252495   6.526   6.843   4.976 -1.5495  1.8154  0.5526
17101SOL     OW52496   1.234   6.815   2.760 -0.0166 -0.2624  0.6237
17101SOL    HW152497   1.238   6.857   2.846  0.6091  0.9847  0.0104
17101SOL    HW252498   1.169   6.866   2.711 -0.1365 -0.7660  0.2548
17102SOL     OW52499   3.583   4.103   1.237  0.6854  0.1884  0.3507
17102SOL    HW152500   3.586   4.193   1.205  0.7294  0.4344  1.0362
17102SOL    HW252501   3.490   4.087   1.254  0.8595  0.7861  2.0877
17103SOL     OW52502   0.346   1.616   7.497  0.4832  0.1472 -0.2621
17103SOL    HW152503   0.406   1.619   7.422  0.4626 -0.5875 -0.3176
17103SOL    HW252504   0.403   1.598   7.572  0.3517 -0.4671 -0.3032
17104SOL     OW52505   4.062   8.045   1.171  0.4509  0.2625 -0.2335
17104SOL    HW152506   4.152   8.024   1.146  0.4846  0.4080 -0.2357
17104SOL    HW252507   4.016   7.961   1.170  0.3941  0.2939 -1.0188
17105SOL     OW52508   1.367   6.200   8.299 -0.3459 -0.3796  0.1751
17105SOL    HW152509   1.421   6.122   8.313 -0.0747 -0.4579 -1.1552
17105SOL    HW252510   1.287   6.166   8.259  0.1953  0.0880 -1.3983
17106SOL     OW52511   4.890   1.042   6.724 -0.3987  0.1313  0.0589
17106SOL    HW152512   4.922   0.952   6.722  1.8633  0.8874 -0.3074
17106SOL    HW252513   4.937   1.083   6.797  0.0224  1.4881 -0.9430
17107SOL     OW52514   7.659   0.997   3.853  0.4829 -0.0153 -0.1461
17107SOL    HW152515   7.646   0.905   3.833  1.5487 -0.3769  0.7619
17107SOL    HW252516   7.709   1.031   3.778 -0.3763 -0.0264 -0.7408
17108SOL     OW52517   2.641   1.931   2.979  0.7161 -0.0638 -0.3583
17108SOL    HW152518   2.678   2.019   2.980  0.5941  0.0051  1.5807
17108SOL    HW252519   2.715   1.874   2.997  0.6023 -0.2636 -0.5223
17109SOL     OW52520   7.037   0.581   7.895  0.0242  0.2157  0.3224
17109SOL    HW152521   6.999   0.663   7.928  1.0344  0.3396  1.2111
17109SOL    HW252522   7.044   0.525   7.972  3.1099  0.7643  0.5444
17110SOL     OW52523   4.444   6.966   7.813  0.4154 -0.1302 -0.3839
17110SOL    HW152524   4.534   6.981   7.783  0.3885 -1.7587 -1.3939
17110SOL    HW252525   4.395   6.947   7.733 -0.7140  0.1956  0.2184
17111SOL     OW52526   1.852   0.957   8.531 -0.2115  0.0865 -0.3986
17111SOL    HW152527   1.895   0.969   8.447 -1.7985  1.1970 -1.0983
17111SOL    HW252528   1.848   0.862   8.542  2.5259 -0.0873 -0.1707
17112SOL     OW52529   1.073   2.587   4.682 -0.9820  0.7422 -0.0311
17112SOL    HW152530   1.046   2.583   4.591 -0.2848  1.3278 -0.2784
17112SOL    HW252531   1.025   2.662   4.718 -2.0365 -0.1001  0.3712
17113SOL     OW52532   4.631   0.124   6.454  0.1286 -0.8360 -0.0557
17113SOL    HW152533   4.651   0.130   6.361 -0.2905  0.1228 -0.0860
17113SOL    HW252534   4.701   0.067   6.489  2.5461  1.7410 -0.3139
17114SOL     OW52535   7.787   1.256   7.939 -0.8070 -0.3249  0.1268
17114SOL    HW152536   7.829   1.241   7.854 -1.8748  0.6744 -0.6036
17114SOL    HW252537   7.845   1.318   7.983 -1.1897  0.6092 -0.6452
17115SOL     OW52538   3.968   3.067   5.128 -0.6193 -0.0305 -0.3872
17115SOL    HW152539   3.928   3.106   5.205  1.6960 -1.3927  1.6532
17115SOL    HW252540   3.986   2.976   5.153  2.4177  0.1034 -1.5437
17116SOL     OW52541   6.907   7.966   2.352  0.4594  0.1758 -0.4019
17116SOL    HW152542   6.822   7.922   2.356  1.2809 -1.5828 -1.2997
17116SOL    HW252543   6.921   7.984   2.259  0.6877  1.2991 -0.1686
17117SOL     OW52544   3.923   5.092   7.362 -0.0453  0.2970 -0.1457
17117SOL    HW152545   3.973   5.062   7.438 -0.5573 -1.4480 -0.4406
17117SOL    HW252546   3.832   5.073   7.384 -0.3591  1.2264 -0.5769
17118SOL     OW52547   6.789   1.205   7.647 -0.7295 -0.0922 -0.1631
17118SOL    HW152548   6.723   1.190   7.579 -1.0561  0.5268  0.0127
17118SOL    HW252549   6.872   1.204   7.599 -0.8227 -1.2072 -0.3352
17119SOL     OW52550   2.358   1.078   1.244  0.2794 -0.4480  0.6638
17119SOL    HW152551   2.406   1.145   1.292  1.4349  1.0582 -2.3172
17119SOL    HW252552   2.386   0.996   1.284  0.8904  0.6722  2.7030
17120SOL     OW52553   7.126   6.915   0.873 -0.3570 -0.4166 -0.2588
17120SOL    HW152554   7.040   6.874   0.857 -0.1147 -0.6595 -0.9731
17120SOL    HW252555   7.171   6.909   0.789 -0.8702  2.7430 -0.8667
17121SOL     OW52556   6.585   1.054   4.835 -0.3196 -1.0056  0.4061
17121SOL    HW152557   6.633   1.106   4.900  0.4951  0.0663 -0.9757
17121SOL    HW252558   6.497   1.048   4.870  0.3508 -1.4042  2.1246
17122SOL     OW52559   3.636   1.290   2.420  0.1084  0.2165  0.3446
17122SOL    HW152560   3.550   1.267   2.384  0.4076 -0.5042  0.0820
17122SOL    HW252561   3.691   1.304   2.343  0.3916  0.0490  0.5160
17123SOL     OW52562   3.965   0.984   5.081 -0.3660  0.5307  0.1864
17123SOL    HW152563   3.949   1.067   5.126  0.3476 -0.0938  1.6715
17123SOL    HW252564   3.904   0.983   5.008 -2.2355  1.2168  1.6767
17124SOL     OW52565   3.591   0.503   3.904  0.3672  0.1299  0.2424
17124SOL    HW152566   3.617   0.430   3.848 -0.2965  0.7372 -0.8913
17124SOL    HW252567   3.522   0.466   3.960  0.6836 -0.3487  0.3250
17125SOL     OW52568   0.141   0.827   1.104  0.2690  0.4533  0.0162
17125SOL    HW152569   0.176   0.808   1.191 -1.2028  0.3086  0.6109
17125SOL    HW252570   0.137   0.923   1.100  0.0262  0.4518  0.2388
17126SOL     OW52571   7.238   2.388   8.128  0.2801  0.3170 -0.0542
17126SOL    HW152572   7.314   2.415   8.077 -0.5761  1.3160 -0.8410
17126SOL    HW252573   7.258   2.299   8.157  0.8614 -0.2136 -1.9848
17127SOL     OW52574   6.870   5.976   2.397 -0.2963 -0.3179  0.5820
17127SOL    HW152575   6.850   5.927   2.318 -0.0888  1.5721 -0.7183
17127SOL    HW252576   6.798   6.039   2.405  0.6435  0.7662  0.7880
17128SOL     OW52577   0.609   6.473   5.309  0.1058 -0.1387  0.2694
17128SOL    HW152578   0.616   6.380   5.287  0.9834 -0.1324  0.4810
17128SOL    HW252579   0.655   6.481   5.392  0.4701  0.5739  0.0039
17129SOL     OW52580   2.683   2.000   0.294  0.6997 -0.6095 -0.4166
17129SOL    HW152581   2.764   1.984   0.245  0.7759 -1.9055  0.0818
17129SOL    HW252582   2.711   2.011   0.384  0.5113  1.2955 -0.5507
17130SOL     OW52583   2.135   5.884   0.761  0.3133 -0.0529  0.3549
17130SOL    HW152584   2.044   5.903   0.738  0.8785  1.9384 -0.4350
17130SOL    HW252585   2.170   5.838   0.685  0.1037 -0.4213  0.4771
17131SOL     OW52586   3.713   3.086   0.474  0.1097 -0.1248  0.6662
17131SOL    HW152587   3.629   3.076   0.430  1.2252 -0.4382 -1.5428
17131SOL    HW252588   3.778   3.077   0.404  2.0474 -1.3272  2.4809
17132SOL     OW52589   7.454   5.732   7.619 -0.5576 -0.4276  0.3596
17132SOL    HW152590   7.423   5.818   7.645 -1.8485 -0.7374 -0.0771
17132SOL    HW252591   7.477   5.741   7.526 -1.2299 -0.6921  0.1670
17133SOL     OW52592   3.790   3.202   3.381  0.3505 -0.1383 -0.0723
17133SOL    HW152593   3.812   3.111   3.362 -1.2299 -1.1499  2.4094
17133SOL    HW252594   3.703   3.214   3.343  1.4470  1.1480 -2.3914
17134SOL     OW52595   7.320   3.080   3.233  0.1321  0.0932 -0.4049
17134SOL    HW152596   7.292   3.001   3.186 -0.4830 -0.8774  1.4599
17134SOL    HW252597   7.250   3.143   3.218  1.0612  0.6604 -2.6684
17135SOL     OW52598   6.033   7.871   3.625  0.6891 -0.5050  0.2978
17135SOL    HW152599   6.068   7.915   3.703  1.2606 -0.9533  0.3005
17135SOL    HW252600   5.948   7.838   3.652  0.4910  0.1269  0.4598
17136SOL     OW52601   6.442   5.326   8.546  0.0268  0.0621 -0.0910
17136SOL    HW152602   6.400   5.357   8.465  0.4269 -1.1591 -0.7944
17136SOL    HW252603   6.529   5.367   8.544  0.3146 -0.5538 -0.6801
17137SOL     OW52604   8.141   2.918   3.890 -0.1513  0.3670  0.2780
17137SOL    HW152605   8.085   2.958   3.823 -1.4249 -1.9056 -0.1250
17137SOL    HW252606   8.090   2.921   3.970  0.5271  1.1969  0.7018
17138SOL     OW52607   6.654   2.899   7.308 -0.4036  0.0837  0.7933
17138SOL    HW152608   6.572   2.878   7.351 -0.7215 -0.7994 -0.1912
17138SOL    HW252609   6.633   2.901   7.215  0.6997 -0.2750  0.5109
17139SOL     OW52610   0.088   2.500   0.188  0.3067  0.0239 -0.3495
17139SOL    HW152611   0.099   2.569   0.252 -0.0740  0.3175 -0.5958
17139SOL    HW252612   0.162   2.441   0.202 -0.9238 -1.1311  1.8753
17140SOL     OW52613   6.655   2.118   1.079 -0.1931 -0.1084 -0.0690
17140SOL    HW152614   6.621   2.030   1.096 -0.5653 -0.1304 -0.8928
17140SOL    HW252615   6.579   2.169   1.051  0.2368  0.1457 -0.7987
17141SOL     OW52616   7.233   3.177   2.147  0.1448  0.0705 -0.3181
17141SOL    HW152617   7.312   3.203   2.100  0.0045 -0.5382 -0.9100
17141SOL    HW252618   7.232   3.232   2.226  2.3823 -1.4754  0.9027
17142SOL     OW52619   5.387   3.296   0.585  0.7749  0.6462 -0.4113
17142SOL    HW152620   5.378   3.321   0.493  0.5908  1.9579 -0.0622
17142SOL    HW252621   5.323   3.351   0.631  0.1587 -0.6895  0.3992
17143SOL     OW52622   6.422   5.418   1.572 -0.2903  0.3130 -0.2946
17143SOL    HW152623   6.365   5.476   1.621  0.8685  1.5711 -0.3843
17143SOL    HW252624   6.380   5.332   1.579 -1.1492  0.8162  1.2733
17144SOL     OW52625   1.551   5.114   0.896 -0.3648 -0.6809 -0.1898
17144SOL    HW152626   1.565   5.042   0.835 -0.2401 -1.2179  0.4594
17144SOL    HW252627   1.512   5.073   0.973  0.2772 -0.1565  0.4306
17145SOL     OW52628   1.415   4.955   7.698 -0.3530  0.2817 -0.3875
17145SOL    HW152629   1.505   4.936   7.726  0.1946  1.3437 -1.2903
17145SOL    HW252630   1.413   5.051   7.691 -0.9761  0.1782 -2.1383
17146SOL     OW52631   2.042   2.984   6.698 -0.7903 -0.2252  0.3801
17146SOL    HW152632   2.018   3.015   6.785  0.4913 -0.4037  0.8181
17146SOL    HW252633   2.071   2.893   6.712  2.5679  0.7186  0.3755
17147SOL     OW52634   1.570   2.170   3.100 -0.1082 -0.5594  0.4742
17147SOL    HW152635   1.514   2.128   3.166 -1.3538 -0.7360 -0.6629
17147SOL    HW252636   1.529   2.255   3.085 -0.0671 -0.6844 -0.3565
17148SOL     OW52637   7.343   3.360   3.312  0.0435  0.1334 -0.6835
17148SOL    HW152638   7.273   3.322   3.366 -0.1062  0.1694 -0.8499
17148SOL    HW252639   7.360   3.293   3.245 -0.7412  0.6655 -1.4325
17149SOL     OW52640   5.951   0.452   1.387  0.3439  0.0503  0.4157
17149SOL    HW152641   5.974   0.378   1.331  3.2578  0.6244  0.7214
17149SOL    HW252642   5.936   0.412   1.473  1.9160 -0.2587  0.5859
17150SOL     OW52643   7.627   5.396   7.347  0.0506 -0.2973  0.2010
17150SOL    HW152644   7.570   5.465   7.315  0.0113 -0.5555 -0.2975
17150SOL    HW252645   7.655   5.349   7.268  2.0359  0.6353  0.2865
17151SOL     OW52646   8.531   6.489   3.405 -0.2602 -0.1433  0.0854
17151SOL    HW152647   8.474   6.472   3.330 -2.2587  1.2120  1.2051
17151SOL    HW252648   8.570   6.404   3.426 -3.0282 -1.5040  0.1462
17152SOL     OW52649   8.101   6.475   3.615  0.2150  0.9334 -0.2250
17152SOL    HW152650   8.071   6.549   3.562 -1.1205  1.0131  0.5801
17152SOL    HW252651   8.040   6.473   3.689  1.8443  0.6603  1.1605
17153SOL     OW52652   6.967   7.940   4.037 -0.0252  0.1701 -0.2775
17153SOL    HW152653   7.042   7.884   4.058  0.5967  0.9272 -0.4478
17153SOL    HW252654   6.903   7.880   3.998 -0.0809 -0.7394  1.1318
17154SOL     OW52655   1.973   6.953   4.210  0.0982 -0.2124  0.3841
17154SOL    HW152656   2.051   6.969   4.263  0.9238 -1.0474 -0.5560
17154SOL    HW252657   1.925   7.036   4.213  1.4582  0.6072  0.2664
17155SOL     OW52658   7.335   7.068   5.524  0.0299 -0.3584  0.3241
17155SOL    HW152659   7.288   7.057   5.441 -0.7419 -0.9379  0.8271
17155SOL    HW252660   7.407   7.128   5.502 -1.9429  2.0211 -0.1148
17156SOL     OW52661   5.868   1.067   0.423 -0.7509  0.2067 -0.0593
17156SOL    HW152662   5.782   1.080   0.462 -0.6486 -0.9979  0.6008
17156SOL    HW252663   5.927   1.056   0.497 -0.5374 -1.9795 -0.4850
17157SOL     OW52664   5.970   5.877   1.145  0.1170  0.3986 -0.0796
17157SOL    HW152665   5.974   5.973   1.151  0.6437  0.4523 -1.0655
17157SOL    HW252666   6.034   5.847   1.210  0.1831  0.7249  0.0123
17158SOL     OW52667   3.825   7.649   6.465 -0.2445 -0.3811  0.3122
17158SOL    HW152668   3.829   7.554   6.478  0.5995 -0.3407  0.3784
17158SOL    HW252669   3.916   7.677   6.459 -0.4933  0.2658 -0.8869
17159SOL     OW52670   4.791   8.351   6.237  0.3240 -0.5621  0.0569
17159SOL    HW152671   4.873   8.336   6.190  0.8532 -1.9668  1.3577
17159SOL    HW252672   4.813   8.415   6.305  0.1975 -0.4869  0.0272
17160SOL     OW52673   4.268   0.382   3.106  0.4288  0.2523 -0.1090
17160SOL    HW152674   4.337   0.332   3.062  0.6951 -0.2173  0.8022
17160SOL    HW252675   4.187   0.341   3.078  0.6465 -0.7110  0.6184
17161SOL     OW52676   2.350   1.224   5.128  0.0344  0.3339 -0.1882
17161SOL    HW152677   2.418   1.165   5.095  0.5333  1.9270 -2.2889
17161SOL    HW252678   2.314   1.180   5.205  2.8722 -0.9492  0.5233
17162SOL     OW52679   8.294   3.526   1.051  0.2950 -0.0331 -0.3163
17162SOL    HW152680   8.241   3.523   1.131  1.4608  2.9999  0.7190
17162SOL    HW252681   8.364   3.462   1.065 -0.2539 -0.4616  0.5028
17163SOL     OW52682   2.042   3.615   1.412  0.0440 -0.4295  0.3018
17163SOL    HW152683   2.079   3.527   1.418 -0.3754 -0.6187  0.1508
17163SOL    HW252684   2.118   3.673   1.418  0.6961 -0.8543 -2.5554
17164SOL     OW52685   7.443   6.932   5.994 -0.1130 -0.5142 -0.0229
17164SOL    HW152686   7.377   6.954   5.928 -0.6195 -2.7498 -0.3264
17164SOL    HW252687   7.526   6.961   5.956 -0.7781  1.5464 -0.0135
17165SOL     OW52688   7.274   4.614   3.092  0.3490  0.4189  0.4023
17165SOL    HW152689   7.302   4.576   3.008  0.4203 -0.0468  0.6345
17165SOL    HW252690   7.356   4.644   3.133  0.6819 -1.8712  1.5425
17166SOL     OW52691   5.764   3.904   3.504  0.7377  0.6928 -0.2077
17166SOL    HW152692   5.774   3.979   3.563 -1.4533 -0.7263  2.2131
17166SOL    HW252693   5.822   3.837   3.541 -2.0684 -0.8702  1.7538
17167SOL     OW52694   5.808   6.451   5.923  0.0345  0.5911  0.5266
17167SOL    HW152695   5.791   6.358   5.941  2.4370 -0.3722 -1.5937
17167SOL    HW252696   5.725   6.483   5.886  0.1131 -1.6934 -1.9569
17168SOL     OW52697   4.060   2.555   0.562 -0.4488 -0.2336 -0.7473
17168SOL    HW152698   4.133   2.616   0.568 -0.7039  0.2538 -2.2093
17168SOL    HW252699   4.100   2.471   0.543 -0.1460 -0.4018  0.5484
17169SOL     OW52700   0.978   7.613   7.340 -0.4211 -0.0067 -0.0139
17169SOL    HW152701   1.008   7.699   7.371 -1.0339  1.1534 -2.4312
17169SOL    HW252702   0.882   7.620   7.340 -0.6478 -1.7476  2.3879
17170SOL     OW52703   3.832   2.882   1.057  0.4310 -0.0602 -0.0395
17170SOL    HW152704   3.767   2.949   1.036  1.8045  1.6966  1.0893
17170SOL    HW252705   3.789   2.827   1.122  0.0855  1.1622  0.8079
17171SOL     OW52706   5.944   4.935   0.958  0.1098 -0.6390  0.0198
17171SOL    HW152707   5.862   4.963   1.000 -1.0446 -1.5214 -1.5497
17171SOL    HW252708   5.993   4.892   1.028 -1.3899 -1.3646  0.6711
17172SOL     OW52709   7.813   6.794   0.268  0.2959 -0.2944  0.4559
17172SOL    HW152710   7.788   6.805   0.360 -0.7193 -1.5591  0.3700
17172SOL    HW252711   7.785   6.705   0.247 -0.1791  0.2305 -1.2902
17173SOL     OW52712   0.872   3.126   2.843 -0.3092  0.1213  0.2857
17173SOL    HW152713   0.889   3.141   2.750  1.1251  1.2318  0.6839
17173SOL    HW252714   0.787   3.167   2.858  0.0786  1.1659 -0.2603
17174SOL     OW52715   0.627   0.880   7.169 -0.3753 -0.0463  0.5374
17174SOL    HW152716   0.550   0.925   7.134 -0.0335  0.9343  1.0045
17174SOL    HW252717   0.606   0.865   7.262  0.2134  0.7275  0.8008
17175SOL     OW52718   1.215   4.619   0.087  0.3843 -0.0475  0.2325
17175SOL    HW152719   1.283   4.682   0.109 -1.4809  1.5631  1.8286
17175SOL    HW252720   1.225   4.549   0.152  2.0669 -1.1836 -1.1597
17176SOL     OW52721   4.458   1.656   2.966  0.1640 -0.0663  0.0300
17176SOL    HW152722   4.524   1.589   2.945  1.1426 -0.0485  2.6909
17176SOL    HW252723   4.431   1.689   2.881  0.8110 -2.7130 -1.3333
17177SOL     OW52724   8.155   6.029   5.294  0.6304 -0.3721 -0.6246
17177SOL    HW152725   8.109   5.947   5.312  1.1655 -0.6438 -0.4684
17177SOL    HW252726   8.239   6.002   5.257  1.2187  0.0587  0.3348
17178SOL     OW52727   3.421   6.547   4.648 -0.2075  0.2544  0.2654
17178SOL    HW152728   3.373   6.616   4.602 -0.2172  0.7464  0.9938
17178SOL    HW252729   3.449   6.588   4.730 -0.0934 -0.5703  0.6486
17179SOL     OW52730   6.851   7.758   1.774  0.0242 -0.2495 -0.5173
17179SOL    HW152731   6.807   7.673   1.763 -0.3250 -0.0516 -0.6886
17179SOL    HW252732   6.851   7.796   1.686  0.1163 -0.0444 -0.4290
17180SOL     OW52733   0.433   4.474   8.306  0.1077  0.4903  0.0187
17180SOL    HW152734   0.433   4.512   8.218 -1.7301  0.1325 -0.1634
17180SOL    HW252735   0.472   4.387   8.295  0.9499  0.8825 -0.2099
17181SOL     OW52736   8.577   4.436   3.288 -0.2225  0.6687 -0.4238
17181SOL    HW152737   8.670   4.415   3.273  0.0386  1.5080 -0.0071
17181SOL    HW252738   8.560   4.405   3.377 -0.2141  0.9642 -0.3212
17182SOL     OW52739   2.564   6.995   2.718  0.7132 -0.6863  0.0650
17182SOL    HW152740   2.518   6.911   2.721  0.5965 -0.6085  0.5192
17182SOL    HW252741   2.522   7.043   2.646  2.1170 -1.7717 -1.5688
17183SOL     OW52742   3.507   4.683   5.322  0.0739 -0.0641 -0.6933
17183SOL    HW152743   3.524   4.606   5.376  0.0243  0.5654  0.2422
17183SOL    HW252744   3.512   4.757   5.383 -0.4601  0.6267 -1.4621
17184SOL     OW52745   3.241   7.715   4.603  0.1033 -0.2486 -0.4290
17184SOL    HW152746   3.156   7.673   4.617 -0.4360  1.3334  1.5859
17184SOL    HW252747   3.301   7.666   4.659  0.3114 -0.7082 -1.0445
17185SOL     OW52748   1.459   4.486   3.367  0.9576 -0.2176  0.5566
17185SOL    HW152749   1.395   4.471   3.436 -0.0295  0.0445 -0.2666
17185SOL    HW252750   1.544   4.471   3.408  0.7372  3.8585  2.9559
17186SOL     OW52751   2.430   0.119   7.229  0.2674 -0.4690 -0.1735
17186SOL    HW152752   2.356   0.151   7.281  0.1561 -0.3557 -0.3960
17186SOL    HW252753   2.507   0.153   7.274  0.1119  1.2995 -1.1555
17187SOL     OW52754   7.558   7.252   3.202 -0.1889 -0.1696 -0.2179
17187SOL    HW152755   7.604   7.253   3.118  0.2775 -0.7513  0.0299
17187SOL    HW252756   7.535   7.344   3.218 -0.5721 -0.0916 -1.1381
17188SOL     OW52757   4.279   1.046   8.599  0.1572  0.5135 -0.1778
17188SOL    HW152758   4.307   1.113   8.662  0.0981 -0.4149  0.8718
17188SOL    HW252759   4.214   0.995   8.647  1.6031 -1.5004 -0.2481
17189SOL     OW52760   5.460   0.517   1.979 -0.3272 -0.2871 -0.9221
17189SOL    HW152761   5.386   0.505   2.038 -0.0858  1.8264 -0.1087
17189SOL    HW252762   5.422   0.508   1.891 -1.8679  1.8450 -0.5630
17190SOL     OW52763   2.881   0.765   2.755 -0.0565  0.0140 -0.1373
17190SOL    HW152764   2.846   0.685   2.715  0.1137 -0.1282 -0.0084
17190SOL    HW252765   2.906   0.737   2.844 -1.9003  0.6866  0.6344
17191SOL     OW52766   2.644   3.949   5.976  0.0912 -0.0739 -0.0766
17191SOL    HW152767   2.607   3.866   5.947 -0.4075  0.4502 -0.9753
17191SOL    HW252768   2.730   3.953   5.935  0.3984 -0.4512  0.5203
17192SOL     OW52769   2.867   0.084   0.296  0.3417  0.1293  0.3779
17192SOL    HW152770   2.775   0.106   0.313  0.0931  0.1689 -0.8758
17192SOL    HW252771   2.911   0.168   0.287  0.4346  0.1115  0.6786
17193SOL     OW52772   6.482   8.378   2.365 -0.6518 -0.0192  0.1604
17193SOL    HW152773   6.505   8.467   2.391  0.9653 -0.0370 -1.0502
17193SOL    HW252774   6.564   8.339   2.336 -1.3849 -1.8079  0.3410
17194SOL     OW52775   5.969   4.943   1.762  0.3906 -0.3188  0.5104
17194SOL    HW152776   5.914   4.894   1.822 -0.0786  0.1583  0.4812
17194SOL    HW252777   6.050   4.958   1.811  0.7170 -1.4957  0.3533
17195SOL     OW52778   7.969   3.858   3.708  0.3188 -0.0627  0.5363
17195SOL    HW152779   8.041   3.829   3.764 -0.6176 -1.2077  1.2077
17195SOL    HW252780   7.891   3.847   3.763 -0.4663  0.2226 -0.4972
17196SOL     OW52781   4.168   0.086   6.290 -0.3998  0.0355  0.6893
17196SOL    HW152782   4.156  -0.004   6.259  0.7433 -0.0402  0.4231
17196SOL    HW252783   4.172   0.078   6.385  3.1359 -0.7306  0.6250
17197SOL     OW52784   5.965   5.243   5.880 -0.0923  0.9837  0.2293
17197SOL    HW152785   5.992   5.335   5.874  1.6731  0.4249 -2.3361
17197SOL    HW252786   6.048   5.194   5.885 -0.9852 -0.5023  1.3960
17198SOL     OW52787   5.257   3.926   0.272 -0.6698 -0.2324  0.5055
17198SOL    HW152788   5.217   3.899   0.190 -0.2096 -0.0887  0.2350
17198SOL    HW252789   5.284   3.844   0.314  0.5344 -0.2241 -0.2176
17199SOL     OW52790   6.404   1.456   7.481 -0.2193 -0.4049 -0.1798
17199SOL    HW152791   6.334   1.521   7.484 -1.2286 -1.4930  0.8993
17199SOL    HW252792   6.481   1.502   7.514 -0.5297  0.6793 -0.9410
17200SOL     OW52793   0.370   7.807   1.754  0.2505  0.2367  0.1241
17200SOL    HW152794   0.410   7.889   1.782  1.7491 -1.0821  2.1106
17200SOL    HW252795   0.298   7.793   1.816  0.5330 -0.3326  0.3366
17201SOL     OW52796   7.623   7.734   3.501  0.1879  0.2631  0.7471
17201SOL    HW152797   7.620   7.815   3.552  0.2960 -1.1610  3.1300
17201SOL    HW252798   7.539   7.692   3.517  0.8635 -0.9933  1.1381
17202SOL     OW52799   1.222   4.398   4.831 -0.3496  0.2008 -0.3300
17202SOL    HW152800   1.295   4.359   4.783  0.2209  0.3036  0.4366
17202SOL    HW252801   1.252   4.402   4.922 -1.7848 -0.9464  0.2471
17203SOL     OW52802   7.050   1.250   7.865  0.2915  0.1440  0.0008
17203SOL    HW152803   7.019   1.162   7.843 -2.0223  0.6505  0.9576
17203SOL    HW252804   7.100   1.239   7.946 -1.1263 -0.1567  0.8688
17204SOL     OW52805   5.879   0.751   0.301  0.3559  0.1495  0.3291
17204SOL    HW152806   5.894   0.845   0.313 -1.0883  0.7314 -1.8457
17204SOL    HW252807   5.785   0.740   0.317  0.2032 -0.6114 -0.9563
17205SOL     OW52808   4.389   1.456   6.418  0.1596  0.2493  0.2847
17205SOL    HW152809   4.454   1.477   6.485 -0.4927  0.9922  0.6843
17205SOL    HW252810   4.440   1.412   6.350  1.0307  0.5256  0.7388
17206SOL     OW52811   5.761   4.823   2.622 -0.0374 -0.1739  0.3574
17206SOL    HW152812   5.807   4.862   2.548  0.0902  0.1614  0.6133
17206SOL    HW252813   5.812   4.745   2.644 -0.1298 -0.3287  0.0328
17207SOL     OW52814   1.252   0.904   6.821  0.3700  0.2258 -0.2596
17207SOL    HW152815   1.272   0.952   6.901 -1.1760 -0.1893  0.4091
17207SOL    HW252816   1.324   0.842   6.812  1.3062  1.2471 -0.0031
17208SOL     OW52817   4.538   5.760   7.433 -0.0981  0.1614 -0.0040
17208SOL    HW152818   4.580   5.716   7.507  0.8239  1.1444  0.0876
17208SOL    HW252819   4.462   5.804   7.470  0.1576  0.3493  0.3014
17209SOL     OW52820   3.878   4.294   6.705 -0.3233  0.0209 -0.6471
17209SOL    HW152821   3.873   4.209   6.749 -1.4541 -1.8292 -4.0062
17209SOL    HW252822   3.827   4.353   6.761 -0.3902 -1.7231  1.2387
17210SOL     OW52823   8.195   0.287   5.833 -0.5723  0.3580  0.0038
17210SOL    HW152824   8.149   0.224   5.888  0.9910 -0.1078  0.8412
17210SOL    HW252825   8.262   0.236   5.787  0.1069  1.2427 -0.0327
17211SOL     OW52826   1.078   2.090   7.402  0.1711  0.3465 -0.2520
17211SOL    HW152827   1.008   2.065   7.463  0.5534  0.7272  0.3510
17211SOL    HW252828   1.101   2.008   7.358  0.0334  0.0221  0.2655
17212SOL     OW52829   5.730   8.261   1.815  0.3364 -0.3453  0.3342
17212SOL    HW152830   5.644   8.231   1.784 -0.2773  1.2910  0.3434
17212SOL    HW252831   5.748   8.205   1.891 -1.4019  0.1489  1.1920
17213SOL     OW52832   1.330   0.153   6.206 -0.3929 -0.5889  0.2416
17213SOL    HW152833   1.266   0.224   6.207 -0.7598 -0.9277  0.8393
17213SOL    HW252834   1.278   0.073   6.209  0.0445 -0.8672  0.5817
17214SOL     OW52835   5.042   3.766   1.126  0.3636  0.1254  0.2508
17214SOL    HW152836   4.966   3.782   1.182 -0.9453 -0.5654 -1.2374
17214SOL    HW252837   5.055   3.847   1.078 -0.2805 -0.1687 -0.4372
17215SOL     OW52838   3.072   6.206   2.523  0.2930 -0.5277  0.5123
17215SOL    HW152839   2.980   6.181   2.536  0.1936  0.1145  1.0924
17215SOL    HW252840   3.073   6.245   2.435 -0.0220 -0.4121  0.5557
17216SOL     OW52841   4.604   6.118   0.851 -0.6078  0.1921 -0.3945
17216SOL    HW152842   4.516   6.081   0.841 -0.3864 -0.1281 -1.2486
17216SOL    HW252843   4.589   6.212   0.865 -1.1036  0.0416  0.1322
17217SOL     OW52844   5.478   1.604   6.211  0.1831  0.4900 -0.1668
17217SOL    HW152845   5.391   1.630   6.241  0.4608  0.9587  0.2430
17217SOL    HW252846   5.519   1.685   6.181  0.0329  0.0799 -1.5249
17218SOL     OW52847   4.470   3.066   5.587  0.2994 -0.0477  0.1385
17218SOL    HW152848   4.422   3.056   5.669 -1.5498  3.3103 -0.3329
17218SOL    HW252849   4.434   2.999   5.529  0.3692 -1.3132  1.5057
17219SOL     OW52850   4.042   5.032   6.675  0.4170 -0.0007  0.3079
17219SOL    HW152851   3.961   5.004   6.717 -0.8921  1.0568 -1.3283
17219SOL    HW252852   4.112   5.002   6.733 -1.1339 -1.0256  1.7363
17220SOL     OW52853   7.147   6.518   8.344  0.1360  0.0081  0.1789
17220SOL    HW152854   7.135   6.441   8.400  3.1730 -0.5867  0.2013
17220SOL    HW252855   7.121   6.488   8.257  1.0524 -0.9918  0.2341
17221SOL     OW52856   3.068   6.699   2.263  0.3196  0.2684  0.2751
17221SOL    HW152857   3.104   6.663   2.182  1.5821  0.6740  0.6350
17221SOL    HW252858   3.127   6.667   2.331 -1.2135 -0.7886  1.1644
17222SOL     OW52859   0.118   2.466   2.484  0.2342  0.2402  0.0356
17222SOL    HW152860   0.060   2.515   2.543  0.0313  2.3207 -1.7775
17222SOL    HW252861   0.206   2.493   2.509  0.1358  1.3500 -0.7420
17223SOL     OW52862   2.338   4.208   8.344 -0.1370  0.4161  0.4548
17223SOL    HW152863   2.386   4.135   8.383  0.0514  0.5763  0.5186
17223SOL    HW252864   2.345   4.193   8.249  1.7141  1.5079  0.3772
17224SOL     OW52865   8.291   6.435   4.660  0.1013 -0.3274  0.0817
17224SOL    HW152866   8.208   6.415   4.703  0.7618 -1.9176  0.6661
17224SOL    HW252867   8.265   6.478   4.578 -1.4380 -3.0323 -0.9855
17225SOL     OW52868   6.110   5.968   7.506  0.0552 -0.4390  0.1516
17225SOL    HW152869   6.035   5.946   7.450  0.0902  0.4863 -0.2792
17225SOL    HW252870   6.181   5.986   7.445  0.5436 -0.9969  0.5526
17226SOL     OW52871   5.162   6.784   4.324  0.3246  0.6892  0.3384
17226SOL    HW152872   5.152   6.744   4.238  2.4218 -0.3536  0.5280
17226SOL    HW252873   5.109   6.864   4.319  0.1852  0.5228 -1.8226
17227SOL     OW52874   2.597   6.899   5.631 -0.5715 -0.2843 -0.1158
17227SOL    HW152875   2.614   6.950   5.552 -2.8357 -0.2417 -0.6387
17227SOL    HW252876   2.684   6.885   5.669  0.4398  0.9658 -1.7961
17228SOL     OW52877   0.901   6.349   3.895 -0.6264  0.2069 -0.9220
17228SOL    HW152878   0.932   6.261   3.913 -0.1810  0.0285 -2.4817
17228SOL    HW252879   0.809   6.337   3.871 -0.3850  0.0740 -1.8066
17229SOL     OW52880   0.074   3.764   3.355  0.5531 -0.1563  0.1857
17229SOL    HW152881   0.147   3.758   3.295  1.2333 -0.1074  0.9915
17229SOL    HW252882   0.002   3.800   3.303  1.3707  0.6777 -0.3704
17230SOL     OW52883   3.275   3.324   3.782 -0.0241 -0.1439 -0.5095
17230SOL    HW152884   3.342   3.322   3.851  0.7021  2.6683 -1.0145
17230SOL    HW252885   3.192   3.314   3.829  0.4799  1.3847  0.8006
17231SOL     OW52886   2.819   8.194   7.460  0.1554  0.2177  0.0362
17231SOL    HW152887   2.737   8.189   7.509  0.7504  0.3589  1.0646
17231SOL    HW252888   2.855   8.279   7.482  1.3037 -0.4377  0.7949
17232SOL     OW52889   4.088   3.843   4.516  0.2885 -0.3884  0.3909
17232SOL    HW152890   4.124   3.785   4.584 -0.6187 -0.6391  0.6729
17232SOL    HW252891   4.020   3.791   4.474  0.3710  0.0148 -0.2490
17233SOL     OW52892   2.386   5.176   1.162  0.3156  0.4584  0.2795
17233SOL    HW152893   2.474   5.140   1.145 -0.3333 -1.2004  0.1806
17233SOL    HW252894   2.361   5.218   1.080  0.5854 -0.0742 -0.0884
17234SOL     OW52895   7.194   7.674   6.337 -0.2499  0.3861  0.0483
17234SOL    HW152896   7.242   7.591   6.340 -1.0423 -0.1526 -1.4463
17234SOL    HW252897   7.240   7.726   6.271  0.8177  1.5620  1.6183
17235SOL     OW52898   2.028   1.714   6.337 -0.3904 -0.5914  0.4310
17235SOL    HW152899   2.032   1.809   6.328 -0.0898 -0.7392 -1.4512
17235SOL    HW252900   2.112   1.683   6.301 -1.0998 -1.6281 -0.3944
17236SOL     OW52901   4.696   5.071   3.006 -0.2776  0.5167  0.5740
17236SOL    HW152902   4.693   4.983   3.042  0.4842 -0.3403 -1.3510
17236SOL    HW252903   4.628   5.072   2.939  1.1955  0.6197 -0.9805
17237SOL     OW52904   6.378   8.256   2.600  0.2535 -0.4240  0.1598
17237SOL    HW152905   6.440   8.290   2.665 -0.3443  1.7867 -0.3574
17237SOL    HW252906   6.405   8.298   2.518 -1.3164 -0.1889 -0.2576
17238SOL     OW52907   8.018   7.013   4.578 -0.2900  0.0948  0.1874
17238SOL    HW152908   7.943   7.021   4.638 -0.4583 -1.1717  0.1617
17238SOL    HW252909   8.036   7.103   4.551 -1.4373  0.4847  0.6497
17239SOL     OW52910   5.585   6.814   5.205 -0.0731 -0.2701  1.0062
17239SOL    HW152911   5.652   6.832   5.139 -1.3122  2.0057  0.2441
17239SOL    HW252912   5.546   6.731   5.178  2.3610 -1.6631  1.4858
17240SOL     OW52913   0.943   1.831   1.667 -0.0753 -0.1907  0.5408
17240SOL    HW152914   0.912   1.762   1.726  0.3535 -0.5178  0.3925
17240SOL    HW252915   0.884   1.826   1.592 -0.5748  0.1753  0.8982
17241SOL     OW52916   3.785   0.520   8.247  0.4543  0.2814 -0.2402
17241SOL    HW152917   3.714   0.569   8.207  1.0719  1.5231  0.1332
17241SOL    HW252918   3.861   0.578   8.241  0.9446 -0.1547  1.2511
17242SOL     OW52919   5.614   1.107   0.529  0.1971  0.2420 -0.2044
17242SOL    HW152920   5.546   1.103   0.461 -0.0891  0.2009  0.0820
17242SOL    HW252921   5.618   1.199   0.553 -1.1359 -0.0265  1.1552
17243SOL     OW52922   1.957   7.897   1.024 -0.1514  0.6070  0.1040
17243SOL    HW152923   1.880   7.934   0.981 -0.2720  1.6201  1.1439
17243SOL    HW252924   1.956   7.804   1.001 -0.7531  0.9214 -1.2430
17244SOL     OW52925   7.249   7.839   2.549  0.1862 -0.2873 -0.0182
17244SOL    HW152926   7.316   7.812   2.486 -0.1707 -1.3275  0.0222
17244SOL    HW252927   7.282   7.812   2.634  0.4998  0.7861  0.2107
17245SOL     OW52928   6.837   8.067   5.336  0.3299  0.2162  0.1512
17245SOL    HW152929   6.846   8.029   5.424  0.1161  0.6205  0.3503
17245SOL    HW252930   6.806   8.156   5.352 -1.3716 -0.2380 -0.4032
17246SOL     OW52931   2.468   5.193   8.003  1.0283 -0.4370 -0.4441
17246SOL    HW152932   2.466   5.097   8.010  0.1435 -0.5928 -2.2456
17246SOL    HW252933   2.393   5.222   8.055  1.3524 -0.6969  0.1849
17247SOL     OW52934   0.436   1.371   0.598 -0.0679  0.0975 -0.1957
17247SOL    HW152935   0.523   1.398   0.626 -0.3594 -0.3389  1.2667
17247SOL    HW252936   0.449   1.333   0.511  0.8393  1.9230 -0.8952
17248SOL     OW52937   3.158   0.552   2.327  0.2768 -0.2635  0.2153
17248SOL    HW152938   3.189   0.492   2.259 -1.5972  0.4354 -1.3540
17248SOL    HW252939   3.068   0.572   2.302  0.3218  1.9568  1.5717
17249SOL     OW52940   1.848   3.561   0.744 -0.3310  0.1205  0.6664
17249SOL    HW152941   1.780   3.587   0.682 -0.4486  0.5197  0.9623
17249SOL    HW252942   1.843   3.465   0.746  1.3433 -0.1157 -1.8439
17250SOL     OW52943   8.081   7.715   5.311  0.2074  0.3212 -0.3145
17250SOL    HW152944   8.065   7.625   5.340 -1.9078  0.9750  0.7443
17250SOL    HW252945   8.053   7.716   5.220  1.5841 -0.4029 -0.7688
17251SOL     OW52946   1.967   0.266   0.271  0.9362  0.6816  0.2240
17251SOL    HW152947   1.965   0.305   0.358  0.7357 -0.5433  0.7844
17251SOL    HW252948   1.880   0.226   0.260  0.8728  1.0199 -0.6367
17252SOL     OW52949   1.742   3.346   7.961 -0.2330  0.1549  0.1629
17252SOL    HW152950   1.817   3.375   8.012 -1.7419  0.9017  2.0851
17252SOL    HW252951   1.735   3.409   7.890  0.8285  0.1791  0.0652
17253SOL     OW52952   4.240   1.215   4.465 -0.4454  0.3593 -0.8746
17253SOL    HW152953   4.335   1.223   4.454 -0.2518  0.1151  0.4159
17253SOL    HW252954   4.209   1.304   4.478 -0.0876  0.2860  0.7033
17254SOL     OW52955   2.831   6.915   0.627 -0.0043  0.6904  0.6371
17254SOL    HW152956   2.919   6.880   0.637  0.0665  0.5766 -0.2893
17254SOL    HW252957   2.780   6.872   0.696  0.6821  0.8531  1.2649
17255SOL     OW52958   4.505   1.339   3.386  0.3034  0.1581  0.2164
17255SOL    HW152959   4.446   1.288   3.331  1.5756  0.4041 -1.4404
17255SOL    HW252960   4.447   1.382   3.449 -0.9726 -1.9465  0.6036
17256SOL     OW52961   2.097   5.150   5.892  0.2971 -0.0011 -0.0568
17256SOL    HW152962   2.143   5.222   5.848  0.7662 -0.5148 -0.4274
17256SOL    HW252963   2.048   5.192   5.963  1.7448  0.5097  0.6713
17257SOL     OW52964   0.191   0.000   3.033  0.8404  0.6803 -0.0771
17257SOL    HW152965   0.254  -0.072   3.035  0.1645  0.0953  0.5410
17257SOL    HW252966   0.183   0.022   2.940  1.2479  0.1386 -0.2454
17258SOL     OW52967   5.924   4.941   5.023  0.2712 -0.2924 -0.0682
17258SOL    HW152968   6.013   4.936   5.057  0.0249  0.7329  0.7700
17258SOL    HW252969   5.916   4.865   4.965  1.5316 -0.6504  0.2041
17259SOL     OW52970   1.892   1.047   3.976  0.0634  0.2759  0.2286
17259SOL    HW152971   1.898   1.075   4.067 -0.6898 -0.6786  0.5830
17259SOL    HW252972   1.976   1.005   3.957  0.0393  0.0429  0.6350
17260SOL     OW52973   4.940   3.477   6.502  0.3945  0.0284  0.2931
17260SOL    HW152974   4.867   3.531   6.529  0.5501 -0.0288  0.8400
17260SOL    HW252975   5.010   3.539   6.482  0.5646  0.0325  0.8932
17261SOL     OW52976   2.109   7.120   0.014 -0.2435  0.5416 -0.2418
17261SOL    HW152977   2.052   7.070   0.072 -0.3221 -0.6524 -1.3139
17261SOL    HW252978   2.139   7.194   0.068  0.2172 -0.8629  1.5377
17262SOL     OW52979   5.738   4.052   4.676 -0.3623  0.3225 -0.4347
17262SOL    HW152980   5.723   4.118   4.744 -0.9621  0.4356 -0.6719
17262SOL    HW252981   5.770   4.102   4.601  2.4612 -0.0250  0.4077
17263SOL     OW52982   2.767   8.100   5.627  0.2838  0.1372  0.4550
17263SOL    HW152983   2.785   8.173   5.686 -2.2695 -0.7197  2.4855
17263SOL    HW252984   2.761   8.024   5.685 -1.5897 -0.8866 -0.9790
17264SOL     OW52985   0.687   3.726   5.823 -0.0033  0.4697 -0.2064
17264SOL    HW152986   0.643   3.709   5.906 -2.2056  0.0152 -1.4021
17264SOL    HW252987   0.682   3.643   5.776  2.2584  0.3773 -0.4076
17265SOL     OW52988   0.312   6.088   1.223  0.0289 -0.5070 -0.3093
17265SOL    HW152989   0.221   6.073   1.250  0.3771 -1.1496  0.5343
17265SOL    HW252990   0.318   6.183   1.209 -0.1011 -0.0895  2.1337
17266SOL     OW52991   8.285   5.175   2.751 -0.7265  0.4531  0.3252
17266SOL    HW152992   8.232   5.181   2.831 -0.2403  0.6816  0.6404
17266SOL    HW252993   8.243   5.236   2.690 -1.1572  0.2105  0.3744
17267SOL     OW52994   2.864   6.821   7.860 -0.2296 -0.0666 -0.9272
17267SOL    HW152995   2.861   6.903   7.909  0.3237 -0.4882 -0.1714
17267SOL    HW252996   2.779   6.780   7.878 -0.0285 -0.2205 -0.3030
17268SOL     OW52997   1.880   3.859   1.694  0.3784 -0.0729 -0.0042
17268SOL    HW152998   1.833   3.781   1.665 -0.4770  1.0713 -1.8581
17268SOL    HW252999   1.883   3.850   1.789 -1.8696 -1.1765  0.0384
17269SOL     OW53000   4.250   3.291   8.099  0.1937 -0.1836  0.2632
17269SOL    HW153001   4.211   3.209   8.128  1.0098 -0.6568  0.0765
17269SOL    HW253002   4.340   3.287   8.132  0.8684 -0.3129 -1.4785
17270SOL     OW53003   4.807   8.418   1.265  0.1150  0.6419 -0.6779
17270SOL    HW153004   4.793   8.382   1.177 -0.8290  1.0039 -0.6885
17270SOL    HW253005   4.899   8.398   1.284 -0.0930 -0.8736 -1.0836
17271SOL     OW53006   4.512   4.060   6.407 -0.3491 -0.1688 -0.0628
17271SOL    HW153007   4.505   4.094   6.497  1.6023  0.2061  0.0055
17271SOL    HW253008   4.422   4.048   6.379 -1.0449  1.0049  1.4738
17272SOL     OW53009   1.058   1.015   4.611 -0.1295 -0.1567  0.3005
17272SOL    HW153010   1.126   1.079   4.593  0.6002 -0.3824  2.0432
17272SOL    HW253011   1.097   0.931   4.585 -0.4260 -0.1093 -0.3300
17273SOL     OW53012   5.969   0.972   1.479 -0.1842 -0.0046  0.0163
17273SOL    HW153013   5.897   0.956   1.540 -0.0034 -0.1003  0.2037
17273SOL    HW253014   5.926   0.997   1.398 -0.4886 -1.7624 -0.4032
17274SOL     OW53015   8.119   1.745   2.384 -0.3087 -0.4846 -0.4941
17274SOL    HW153016   8.137   1.656   2.351  0.7072 -1.1640  1.7061
17274SOL    HW253017   8.124   1.800   2.306  0.8354 -2.1194 -1.6633
17275SOL     OW53018   0.568   0.467   3.637 -0.1795 -0.4316 -0.1299
17275SOL    HW153019   0.498   0.518   3.680  0.9235  0.7105  0.3892
17275SOL    HW253020   0.590   0.518   3.559  1.0524  0.0145  0.4778
17276SOL     OW53021   1.492   1.249   4.298 -0.4816  0.1045 -0.0267
17276SOL    HW153022   1.561   1.313   4.277 -0.3372  0.2859  0.9360
17276SOL    HW253023   1.495   1.186   4.226  0.8825 -0.0430  0.1335
17277SOL     OW53024   0.973   1.983   4.609 -0.6276  0.2333 -0.4470
17277SOL    HW153025   1.043   1.924   4.639 -0.9377  0.4550  0.7533
17277SOL    HW253026   0.917   1.928   4.554  0.1342 -0.0996 -0.9142
17278SOL     OW53027   2.563   0.446   4.828 -0.1879 -0.1097  0.6550
17278SOL    HW153028   2.563   0.352   4.841  2.0100 -0.1346  0.8413
17278SOL    HW253029   2.631   0.479   4.888  1.4953  1.1729 -1.7861
17279SOL     OW53030   0.652   1.120   7.453  0.1690  0.4903  0.0640
17279SOL    HW153031   0.639   1.177   7.377  1.0845  2.5710  1.3918
17279SOL    HW253032   0.632   1.032   7.420 -1.0557  1.4999 -2.1405
17280SOL     OW53033   5.088   8.375   4.954  0.3417 -0.0088 -0.2575
17280SOL    HW153034   5.084   8.469   4.973 -0.9596 -0.0544 -0.2591
17280SOL    HW253035   4.997   8.346   4.952  0.6839 -1.1273 -1.0104
17281SOL     OW53036   3.106   5.396   6.417 -0.6248 -0.5378 -0.2061
17281SOL    HW153037   3.158   5.463   6.461 -1.7888 -1.6341  3.1701
17281SOL    HW253038   3.166   5.356   6.355  2.1222 -0.5898  2.2420
17282SOL     OW53039   3.334   3.072   8.592  0.3736  0.9418 -0.3038
17282SOL    HW153040   3.371   3.000   8.541  1.3308  2.4384 -1.8413
17282SOL    HW253041   3.245   3.043   8.614  0.7073 -0.6558 -0.8963
17283SOL     OW53042   0.377   7.775   3.399  0.8921  0.1111  0.3599
17283SOL    HW153043   0.438   7.750   3.330 -0.5922  0.0188 -0.9817
17283SOL    HW253044   0.382   7.870   3.401 -0.4241  0.2721 -1.2737
17284SOL     OW53045   7.040   7.259   0.002  0.0214  0.5893  0.1334
17284SOL    HW153046   7.103   7.259  -0.070  0.1330  0.2697  0.2276
17284SOL    HW253047   7.089   7.223   0.076 -1.1444 -2.8032 -0.5770
17285SOL     OW53048   0.963   4.189   6.062  0.2002  0.1026 -0.8716
17285SOL    HW153049   0.966   4.095   6.082 -0.8112  0.5196  1.7585
17285SOL    HW253050   0.870   4.209   6.053  0.3344  1.0105 -0.4091
17286SOL     OW53051   2.264   1.016   0.166  0.1434  0.5275 -0.1098
17286SOL    HW153052   2.222   0.933   0.189  1.2774 -0.0125  0.1231
17286SOL    HW253053   2.275   1.013   0.071  0.6286  0.1671 -0.0506
17287SOL     OW53054   0.752   2.886   7.076 -0.1095 -0.3699  0.4736
17287SOL    HW153055   0.783   2.917   6.991  0.1734  0.7300  0.9488
17287SOL    HW253056   0.741   2.792   7.065 -0.1355 -0.2364 -0.7898
17288SOL     OW53057   2.024   6.543   3.956 -0.3146 -0.0667 -0.0114
17288SOL    HW153058   2.085   6.570   3.887 -0.7592 -0.4152 -0.5512
17288SOL    HW253059   1.977   6.623   3.979 -1.2543 -0.2306 -1.2269
17289SOL     OW53060   4.132   8.172   8.295 -0.4699 -0.5358 -0.4674
17289SOL    HW153061   4.161   8.246   8.242  0.2384 -1.2529 -1.1016
17289SOL    HW253062   4.089   8.113   8.233 -0.9717 -0.6906  0.0201
17290SOL     OW53063   4.144   0.428   4.947 -0.1254  0.1474  0.1765
17290SOL    HW153064   4.133   0.504   5.004 -2.7534 -0.2229  0.3097
17290SOL    HW253065   4.191   0.364   5.001 -2.5204 -0.1963  2.0991
17291SOL     OW53066   4.893   5.603   5.476 -0.0347  1.3244  0.0123
17291SOL    HW153067   4.809   5.562   5.457  0.6905  0.0620 -0.6010
17291SOL    HW253068   4.918   5.567   5.561 -0.8604  2.9843  1.0036
17292SOL     OW53069   4.727   2.895   0.367  0.1890 -0.2511  0.4510
17292SOL    HW153070   4.818   2.903   0.339 -0.3420  1.9867 -0.8608
17292SOL    HW253071   4.680   2.961   0.317 -2.2225 -1.4524  0.9601
17293SOL     OW53072   8.452   3.494   0.110  0.2002 -0.4478  0.1939
17293SOL    HW153073   8.475   3.421   0.054  0.3605 -0.4576  0.2716
17293SOL    HW253074   8.357   3.486   0.123  0.2253 -0.6701  0.2434
17294SOL     OW53075   2.517   0.871   0.763  0.0805 -0.0616 -0.2804
17294SOL    HW153076   2.436   0.832   0.732 -0.6749  0.6964  0.6465
17294SOL    HW253077   2.537   0.939   0.699 -0.9990  0.9223  0.3786
17295SOL     OW53078   0.070   7.389   7.209 -0.3673  0.1620 -0.4810
17295SOL    HW153079   0.023   7.446   7.270  1.5580  0.2073  1.0491
17295SOL    HW253080   0.029   7.303   7.220 -0.5527  0.3447  0.3194
17296SOL     OW53081   6.948   1.628   2.786 -0.0885  0.0560  0.1832
17296SOL    HW153082   7.028   1.646   2.836  0.4790 -1.3342 -0.1878
17296SOL    HW253083   6.894   1.707   2.798 -0.1498 -0.3544  3.3095
17297SOL     OW53084   2.272   5.577   0.588  0.5932 -0.1749 -0.0547
17297SOL    HW153085   2.184   5.598   0.557  1.2547 -0.7125 -2.5301
17297SOL    HW253086   2.260   5.553   0.679 -1.4221  2.2822  0.4556
17298SOL     OW53087   2.350   4.133   5.344  0.0142 -0.4857 -0.2470
17298SOL    HW153088   2.300   4.180   5.410 -1.2046 -0.6536 -1.0233
17298SOL    HW253089   2.435   4.118   5.385  0.5285  2.4855 -0.0012
17299SOL     OW53090   1.176   7.543   8.350 -0.5794 -0.4492  0.1686
17299SOL    HW153091   1.232   7.537   8.273 -0.2723  1.3088  0.2300
17299SOL    HW253092   1.106   7.480   8.333  0.0865 -0.8938 -1.0266
17300SOL     OW53093   2.110   1.012   1.415 -0.3162 -0.0890  0.4960
17300SOL    HW153094   2.201   0.999   1.440 -0.3300 -0.4911  0.3349
17300SOL    HW253095   2.061   0.946   1.464 -0.2303 -1.6347 -1.3543
17301SOL     OW53096   3.726   0.990   0.123 -0.4532 -0.3065 -0.0105
17301SOL    HW153097   3.642   0.943   0.122  0.0850 -1.3022 -0.3380
17301SOL    HW253098   3.728   1.036   0.039  0.4815 -2.4996 -1.2992
17302SOL     OW53099   6.247   5.578   4.909  0.7290  0.0594 -0.1167
17302SOL    HW153100   6.314   5.634   4.868 -0.0123 -0.0461 -1.5533
17302SOL    HW253101   6.167   5.631   4.906 -0.0368 -1.1086 -1.7095
17303SOL     OW53102   4.506   4.924   3.347 -0.3651  0.0501  0.1622
17303SOL    HW153103   4.436   4.867   3.377 -2.1337  1.5714 -0.8689
17303SOL    HW253104   4.530   4.975   3.425  1.2508 -1.9657  1.0994
17304SOL     OW53105   5.076   3.671   4.387 -0.2239  0.3069  0.1091
17304SOL    HW153106   5.023   3.603   4.428  0.3413  0.3129  0.8902
17304SOL    HW253107   5.036   3.686   4.302 -1.3057  0.1295  0.5751
17305SOL     OW53108   2.858   5.522   7.045  0.1636  0.0411 -0.2964
17305SOL    HW153109   2.925   5.458   7.025  2.0954  1.3709  1.4698
17305SOL    HW253110   2.845   5.571   6.964  0.5700 -0.8658 -0.9217
17306SOL     OW53111   4.961   4.877   2.365  0.6845  0.1770 -0.7193
17306SOL    HW153112   4.869   4.903   2.360  0.4993 -0.3169 -0.0303
17306SOL    HW253113   4.980   4.838   2.280  0.1703  0.0262 -0.7675
17307SOL     OW53114   1.252   7.243   4.695  0.2473 -0.2119 -0.1607
17307SOL    HW153115   1.188   7.221   4.764 -1.1662  1.8796 -0.7208
17307SOL    HW253116   1.258   7.163   4.643  0.5419 -1.5013  1.7097
17308SOL     OW53117   5.091   2.655   0.289 -0.1060  0.1422 -0.5983
17308SOL    HW153118   5.151   2.684   0.358 -1.6368  2.7583 -0.2414
17308SOL    HW253119   5.076   2.563   0.309  1.2410  0.2442  1.2190
17309SOL     OW53120   0.511   1.425   1.341  0.3183  0.0970 -0.0950
17309SOL    HW153121   0.477   1.457   1.258 -2.8145  1.9568  1.6771
17309SOL    HW253122   0.434   1.388   1.385  1.5301  0.3898  2.4547
17310SOL     OW53123   2.138   7.954   2.018 -0.8242  0.2080  0.0083
17310SOL    HW153124   2.091   8.019   2.071 -0.4374  1.6677 -1.3629
17310SOL    HW253125   2.207   7.921   2.076 -0.4374  1.7421  0.4641
17311SOL     OW53126   0.428   2.901   7.593  0.3932 -0.5598  0.0228
17311SOL    HW153127   0.472   2.868   7.514  0.4117  2.9189 -1.6419
17311SOL    HW253128   0.335   2.892   7.574  0.3846  0.7916 -0.7681
17312SOL     OW53129   5.448   0.642   5.770 -0.0216  0.2704  0.3543
17312SOL    HW153130   5.415   0.569   5.822  1.3256 -1.0389 -0.5610
17312SOL    HW253131   5.543   0.637   5.777  0.1256  1.4824 -0.3477
17313SOL     OW53132   0.433   0.777   0.540  0.0473  0.8632  0.5028
17313SOL    HW153133   0.350   0.769   0.588 -1.0614  0.6982 -1.3733
17313SOL    HW253134   0.446   0.871   0.530  0.7325  0.9336  1.8140
17314SOL     OW53135   2.576   6.010   3.677  0.7328 -0.2592  0.2456
17314SOL    HW153136   2.598   6.067   3.603  2.4667 -0.5915  0.4707
17314SOL    HW253137   2.524   5.939   3.637 -0.5607  0.9055 -0.1981
17315SOL     OW53138   7.848   3.119   2.922  0.1367  0.5841 -0.5917
17315SOL    HW153139   7.808   3.198   2.957  0.1037  0.4238 -0.2700
17315SOL    HW253140   7.883   3.146   2.837 -0.0375  0.8971 -0.5651
17316SOL     OW53141   3.823   3.706   4.829  0.1242 -0.3968  0.8316
17316SOL    HW153142   3.889   3.657   4.780 -0.8496  0.2781 -1.2574
17316SOL    HW253143   3.813   3.788   4.781 -1.9213 -0.3051  1.3216
17317SOL     OW53144   2.484   0.051   8.545  0.1039 -0.0120  0.3246
17317SOL    HW153145   2.492  -0.037   8.510  0.4719  0.4931 -0.9167
17317SOL    HW253146   2.452   0.039   8.634  0.2284 -1.3936  0.1974
17318SOL     OW53147   6.301   2.429   8.152 -0.1679 -0.1843 -0.1518
17318SOL    HW153148   6.306   2.521   8.129 -0.9384 -0.4450 -1.4599
17318SOL    HW253149   6.296   2.383   8.068 -2.1606 -1.2508  0.4765
17319SOL     OW53150   4.470   3.792   7.982 -0.0515  0.2981  0.6341
17319SOL    HW153151   4.510   3.740   8.051  1.8820 -0.9241 -1.2652
17319SOL    HW253152   4.543   3.840   7.942 -0.8199 -0.1505 -1.4567
17320SOL     OW53153   0.504   4.072   2.970  0.4631 -0.3559  0.1047
17320SOL    HW153154   0.550   4.153   2.947  0.9012 -0.7363 -0.3812
17320SOL    HW253155   0.434   4.065   2.905  0.3890 -0.3343  0.1826
17321SOL     OW53156   4.338   2.743   0.477 -0.2543  0.3963  0.2389
17321SOL    HW153157   4.407   2.727   0.412 -0.8650 -1.5716  0.0255
17321SOL    HW253158   4.383   2.733   0.561  0.2670  1.7424  0.1501
17322SOL     OW53159   6.440   3.235   5.231 -0.1280  0.0489  0.0146
17322SOL    HW153160   6.489   3.211   5.310  0.2024 -0.6687 -0.4065
17322SOL    HW253161   6.490   3.197   5.159 -0.0409  1.2956 -0.6104
17323SOL     OW53162   2.476   2.012   5.631  0.6417 -0.2344  0.0691
17323SOL    HW153163   2.467   2.107   5.637  0.6048 -0.1770 -0.7323
17323SOL    HW253164   2.567   1.995   5.655  0.4341 -0.0794  0.9887
17324SOL     OW53165   2.464   1.870   0.585  0.2694 -0.3370  0.2726
17324SOL    HW153166   2.458   1.840   0.676  1.1544 -0.3473  0.3375
17324SOL    HW253167   2.557   1.888   0.572  0.0325  0.5446 -0.3495
17325SOL     OW53168   1.724   6.001   5.259 -0.6650 -0.2066  0.4525
17325SOL    HW153169   1.743   6.072   5.321  0.2040  0.9301 -1.0596
17325SOL    HW253170   1.810   5.968   5.233 -0.9365  0.4388 -1.3620
17326SOL     OW53171   7.083   7.839   7.814  0.4735 -0.1771 -0.1151
17326SOL    HW153172   7.177   7.833   7.833  0.5821  0.3603 -0.4602
17326SOL    HW253173   7.072   7.783   7.737  0.0620 -2.2206  1.3581
17327SOL     OW53174   2.634   2.934   8.603 -0.0938  0.2386 -0.3596
17327SOL    HW153175   2.690   2.967   8.533 -1.6905  0.9060 -1.3846
17327SOL    HW253176   2.677   2.963   8.684  2.3790 -1.4820 -0.9455
17328SOL     OW53177   6.299   0.522   0.894  0.0474 -0.0543  0.0651
17328SOL    HW153178   6.292   0.614   0.917  1.2025  0.9222 -2.9875
17328SOL    HW253179   6.392   0.509   0.875 -0.4137 -1.1770 -1.7327
17329SOL     OW53180   5.639   8.267   1.265  0.2614  0.2191  0.8395
17329SOL    HW153181   5.723   8.225   1.247  0.2546  1.2250 -2.1268
17329SOL    HW253182   5.636   8.343   1.206 -3.3194 -0.6436 -0.3932
17330SOL     OW53183   4.955   2.229   1.604 -0.3468 -0.5340  0.4827
17330SOL    HW153184   5.004   2.252   1.525 -0.6438  1.3793  0.8165
17330SOL    HW253185   4.904   2.307   1.625 -0.0314 -0.8782  2.7768
17331SOL     OW53186   7.333   2.855   3.049  0.0330  0.2960 -0.5320
17331SOL    HW153187   7.282   2.799   2.991  0.2484 -1.4998  0.9207
17331SOL    HW253188   7.377   2.795   3.109  2.7809  1.8243 -0.8276
17332SOL     OW53189   6.592   8.429   3.358  0.1075 -0.0382 -0.0052
17332SOL    HW153190   6.584   8.359   3.423  1.0809 -0.3250 -0.1837
17332SOL    HW253191   6.544   8.396   3.281  1.3003 -0.9111 -0.4009
17333SOL     OW53192   8.156   5.771   2.990  0.0979 -0.2267  0.2809
17333SOL    HW153193   8.170   5.846   3.047  1.9965 -1.5801  1.7411
17333SOL    HW253194   8.209   5.788   2.913 -1.4727  1.0328 -0.5656
17334SOL     OW53195   8.153   1.399   5.959 -0.3048  0.0401 -0.3553
17334SOL    HW153196   8.140   1.459   6.032  0.7897  0.2376 -0.2993
17334SOL    HW253197   8.248   1.395   5.948 -0.3886 -1.1273 -0.8256
17335SOL     OW53198   4.823   2.871   3.953 -0.1580 -0.1739 -0.3305
17335SOL    HW153199   4.753   2.919   3.910  0.2220 -0.3342 -1.1400
17335SOL    HW253200   4.789   2.853   4.041 -0.1960  1.7959  0.0930
17336SOL     OW53201   7.736   7.650   1.083  0.0002  0.1019 -0.0461
17336SOL    HW153202   7.668   7.712   1.058  0.5669  0.4460 -0.7716
17336SOL    HW253203   7.695   7.564   1.073 -0.3448  0.3081 -0.4094
17337SOL     OW53204   4.275   0.968   4.724 -0.4091 -0.0005  0.5376
17337SOL    HW153205   4.312   1.054   4.704  0.6294 -0.3046  1.0462
17337SOL    HW253206   4.287   0.917   4.643  2.1019 -0.6722  1.2342
17338SOL     OW53207   4.886   0.889   7.191  0.0666  0.1331  0.7118
17338SOL    HW153208   4.792   0.892   7.212 -0.2805  0.8019 -0.8444
17338SOL    HW253209   4.891   0.847   7.106  1.0665  1.3269  0.1512
17339SOL     OW53210   4.191   1.679   8.054 -0.0899 -0.5963  0.2515
17339SOL    HW153211   4.243   1.656   8.130 -0.5392 -0.0233  0.7396
17339SOL    HW253212   4.176   1.596   8.009  1.2447 -0.7706  0.0927
17340SOL     OW53213   6.551   1.220   5.703  0.5048  0.5782  0.0019
17340SOL    HW153214   6.613   1.151   5.678  0.0862  0.1815  0.0472
17340SOL    HW253215   6.465   1.183   5.684  0.2498  0.8726  0.5661
17341SOL     OW53216   2.253   8.335   4.162  0.0773 -0.2977  0.1347
17341SOL    HW153217   2.263   8.378   4.248  0.0062  2.3894 -1.1039
17341SOL    HW253218   2.184   8.385   4.119  0.5698 -1.1803 -1.7455
17342SOL     OW53219   4.850   7.085   6.397  0.1562 -0.2725  0.5032
17342SOL    HW153220   4.762   7.117   6.378  0.4290  0.6683  0.7280
17342SOL    HW253221   4.878   7.136   6.473  0.5769 -1.1709  0.9708
17343SOL     OW53222   1.281   1.299   8.080  0.4438 -0.1870  0.2064
17343SOL    HW153223   1.251   1.263   7.997 -1.5535  0.0342  0.7881
17343SOL    HW253224   1.319   1.225   8.127  3.0311 -0.0291 -1.4503
17344SOL     OW53225   1.618   2.945   0.549 -0.3059 -0.1973  0.0371
17344SOL    HW153226   1.689   2.999   0.585  0.0031  0.5647 -1.5973
17344SOL    HW253227   1.661   2.863   0.525 -0.4555 -0.5981  1.1282
17345SOL     OW53228   0.812   0.546   0.092  0.1200  0.3653  0.4796
17345SOL    HW153229   0.843   0.483   0.028 -1.2115  1.4303 -1.2955
17345SOL    HW253230   0.722   0.518   0.111 -0.7680  2.1014 -0.9218
17346SOL     OW53231   0.639   6.380   4.854  0.0115 -0.3969 -0.3070
17346SOL    HW153232   0.603   6.445   4.914 -1.0562 -0.4443 -0.8641
17346SOL    HW253233   0.724   6.415   4.828  0.3744 -0.2600  1.0273
17347SOL     OW53234   5.728   0.610   1.683 -0.3905  0.6468  0.6362
17347SOL    HW153235   5.662   0.541   1.674 -0.4122  0.3568  2.6290
17347SOL    HW253236   5.806   0.575   1.642 -0.0246 -1.1360  2.7330
17348SOL     OW53237   7.033   3.751   8.301 -0.1077 -0.1028  0.2568
17348SOL    HW153238   6.953   3.725   8.255 -0.2270 -0.5977  0.7301
17348SOL    HW253239   7.068   3.669   8.336 -0.8895  0.4279  2.4324
17349SOL     OW53240   5.463   1.855   4.910 -0.5566  0.1971 -0.2102
17349SOL    HW153241   5.481   1.947   4.928  1.9304 -0.4847  1.3194
17349SOL    HW253242   5.533   1.828   4.850 -2.1334 -0.4038 -1.8937
17350SOL     OW53243   5.804   6.301   6.849 -0.4706  0.5936  0.1642
17350SOL    HW153244   5.899   6.305   6.863 -0.2174 -2.0299 -0.1492
17350SOL    HW253245   5.792   6.331   6.759  0.4292 -1.2077 -0.6156
17351SOL     OW53246   4.237   7.883   2.745  0.4886 -0.0907 -0.5562
17351SOL    HW153247   4.284   7.893   2.828  0.5386 -0.9989 -0.4715
17351SOL    HW253248   4.254   7.965   2.698 -2.3927  2.0746  1.7329
17352SOL     OW53249   4.688   1.478   0.934  0.7316 -0.0577 -0.7306
17352SOL    HW153250   4.750   1.407   0.951 -0.5955 -1.7482 -2.5513
17352SOL    HW253251   4.697   1.496   0.840 -0.1255  1.0763 -0.6218
17353SOL     OW53252   7.661   6.866   8.284  0.3092  0.0159 -0.2772
17353SOL    HW153253   7.726   6.798   8.301 -0.2398 -0.3401  0.4009
17353SOL    HW253254   7.603   6.827   8.218  0.1825 -0.0521 -0.1255
17354SOL     OW53255   6.159   0.955   2.309 -0.1716 -0.1259 -0.1503
17354SOL    HW153256   6.190   0.884   2.365 -3.0403  0.7273  2.8355
17354SOL    HW253257   6.236   1.011   2.296  1.0470 -1.3929  1.2937
17355SOL     OW53258   1.102   8.528   4.758  0.2269  0.0353  0.1564
17355SOL    HW153259   1.115   8.498   4.848 -0.1283 -1.1071 -0.1449
17355SOL    HW253260   1.043   8.602   4.765  0.5325  0.2180  0.8925
17356SOL     OW53261   4.375   6.739   8.477 -0.1159 -0.6219 -0.1531
17356SOL    HW153262   4.377   6.816   8.420  0.4116 -0.4116  0.1453
17356SOL    HW253263   4.392   6.665   8.418 -1.2641 -0.5859 -0.5514
17357SOL     OW53264   6.560   3.904   7.885 -0.3859 -0.6152 -0.2218
17357SOL    HW153265   6.643   3.948   7.867 -0.2485 -1.2544 -1.2615
17357SOL    HW253266   6.585   3.816   7.915 -0.6397  0.1242  2.3623
17358SOL     OW53267   1.969   3.054   8.304  0.4315  0.4240  0.1943
17358SOL    HW153268   2.031   3.119   8.335  1.4573 -0.6650  0.5108
17358SOL    HW253269   2.000   3.030   8.217  1.1700 -0.9469  0.7959
17359SOL     OW53270   6.709   5.091   3.505 -0.1092  0.1184 -0.5122
17359SOL    HW153271   6.714   5.080   3.600  0.3850  1.3997 -0.3812
17359SOL    HW253272   6.747   5.177   3.488 -0.3173 -0.0340 -1.8642
17360SOL     OW53273   5.077   2.038   3.819 -0.0642 -0.3064 -0.0467
17360SOL    HW153274   5.081   1.957   3.870 -1.7217 -0.3987 -0.0189
17360SOL    HW253275   5.106   2.106   3.879 -0.0492 -0.6941  0.3861
17361SOL     OW53276   7.047   1.992   6.748  0.5332  0.1562 -0.4477
17361SOL    HW153277   7.119   2.039   6.707  0.7247 -0.5099 -0.8903
17361SOL    HW253278   7.025   1.923   6.686  0.3660 -0.4360  0.2560
17362SOL     OW53279   6.312   6.337   7.221 -0.1148 -0.0157  0.5760
17362SOL    HW153280   6.400   6.302   7.232 -0.1935 -0.8893 -1.2197
17362SOL    HW253281   6.275   6.337   7.309  1.7297  0.5716  1.4001
17363SOL     OW53282   1.362   0.610   4.670  0.0501 -0.3471  0.4090
17363SOL    HW153283   1.317   0.550   4.610 -0.1512  0.2433 -0.0427
17363SOL    HW253284   1.309   0.608   4.749 -1.7004  1.4868 -0.6227
17364SOL     OW53285   8.086   2.984   4.887  0.6957  0.2266 -0.6814
17364SOL    HW153286   8.092   3.036   4.807  1.0945 -0.0060 -0.8084
17364SOL    HW253287   8.175   2.954   4.903  0.6582  0.4372 -0.0323
17365SOL     OW53288   7.713   7.261   4.586  0.0490 -0.0317  0.5649
17365SOL    HW153289   7.763   7.342   4.588 -0.2317  0.1327  1.0464
17365SOL    HW253290   7.622   7.289   4.588 -0.0683 -0.3338 -0.1940
17366SOL     OW53291   1.941   4.999   6.969  0.0072  0.7341  0.0098
17366SOL    HW153292   2.009   5.045   7.017  1.1306  0.8352 -1.5778
17366SOL    HW253293   1.978   4.911   6.954 -1.1488  0.0534  1.0287
17367SOL     OW53294   4.309   3.784   2.963  0.3301 -0.3155  0.1464
17367SOL    HW153295   4.241   3.768   3.028  0.7639  0.1853  0.7278
17367SOL    HW253296   4.386   3.810   3.013  0.8432 -0.4860 -0.5288
17368SOL     OW53297   2.485   5.366   8.269  0.4861  0.4815 -0.4200
17368SOL    HW153298   2.448   5.411   8.194  0.8381 -0.2741 -1.0655
17368SOL    HW253299   2.578   5.358   8.248  0.6531  0.5823  0.2613
17369SOL     OW53300   1.469   4.348   1.110  0.3818 -0.5625  0.2697
17369SOL    HW153301   1.448   4.262   1.074 -0.8538  0.4481 -1.5872
17369SOL    HW253302   1.385   4.386   1.133  0.8215  0.4695  0.2638
17370SOL     OW53303   4.422   2.318   1.945  0.6352  0.4088 -0.4182
17370SOL    HW153304   4.470   2.360   2.016  0.1666  1.9290 -0.9641
17370SOL    HW253305   4.465   2.348   1.866 -0.6861  1.1385 -0.8884
17371SOL     OW53306   1.942   7.717   3.989  0.0142 -0.2821  0.4047
17371SOL    HW153307   1.981   7.725   4.076 -0.6197  0.2272  0.6476
17371SOL    HW253308   1.848   7.707   4.005 -0.2436  0.9452 -0.2493
17372SOL     OW53309   5.181   4.989   0.143  0.1509  0.3317  0.6385
17372SOL    HW153310   5.115   5.052   0.113 -0.2931  0.3131  1.5466
17372SOL    HW253311   5.240   4.979   0.068 -1.3179 -0.2467 -0.5006
17373SOL     OW53312   4.483   4.284   6.000  0.1911  0.0830  0.1330
17373SOL    HW153313   4.390   4.301   6.015 -0.2996 -2.9591  1.3024
17373SOL    HW253314   4.493   4.284   5.905 -1.4403 -1.3556 -0.0803
17374SOL     OW53315   0.019   5.917   8.469  0.3642  0.1651 -0.7693
17374SOL    HW153316  -0.009   6.008   8.477 -2.4439 -0.5056 -1.7120
17374SOL    HW253317   0.113   5.919   8.485 -0.1266  2.6761  2.9084
17375SOL     OW53318   3.202   3.408   1.334 -0.1220 -0.2861 -0.2281
17375SOL    HW153319   3.119   3.418   1.381  0.6509 -3.0191  2.0446
17375SOL    HW253320   3.263   3.374   1.400  2.3282 -0.0926 -2.2346
17376SOL     OW53321   3.763   3.264   2.147  0.6998 -0.6254 -0.0057
17376SOL    HW153322   3.765   3.287   2.054  1.0751  0.2395  0.2006
17376SOL    HW253323   3.820   3.188   2.154  1.0911 -0.3797 -0.4090
17377SOL     OW53324   7.594   4.073   5.188 -0.6480 -0.4429  0.3804
17377SOL    HW153325   7.539   4.119   5.125 -0.0635  0.0200  0.1981
17377SOL    HW253326   7.684   4.100   5.166 -0.1909 -2.4236 -0.3750
17378SOL     OW53327   8.486   6.986   4.513  0.1972  0.3139  1.0202
17378SOL    HW153328   8.572   6.945   4.508 -0.3338 -0.7659  0.5586
17378SOL    HW253329   8.491   7.058   4.449  1.2049  1.1776  2.0137
17379SOL     OW53330   8.514   1.904   7.489 -0.6654 -0.1095 -0.2401
17379SOL    HW153331   8.551   1.992   7.476  0.0576 -0.6596 -2.2003
17379SOL    HW253332   8.548   1.876   7.574 -1.9071  1.9602  1.0211
17380SOL     OW53333   6.529   4.044   3.230  0.0602  0.3198  0.0838
17380SOL    HW153334   6.601   4.078   3.178 -0.3348  0.1048 -0.6143
17380SOL    HW253335   6.458   4.029   3.167  0.2777 -1.9985  0.3141
17381SOL     OW53336   5.835   7.461   1.322 -0.0194  0.3090 -0.1098
17381SOL    HW153337   5.902   7.513   1.367 -0.9184  1.2861  0.1330
17381SOL    HW253338   5.752   7.495   1.355 -0.6672 -1.9258  0.7918
17382SOL     OW53339   2.793   3.210   3.630  0.4556 -0.0562  0.6257
17382SOL    HW153340   2.879   3.170   3.625  0.1874 -0.5215 -0.4490
17382SOL    HW253341   2.756   3.200   3.542 -1.5627 -1.8374  1.5990
17383SOL     OW53342   4.820   3.303   0.875 -0.2425 -0.4321 -0.3996
17383SOL    HW153343   4.765   3.225   0.885  0.4688 -0.9478 -0.3563
17383SOL    HW253344   4.884   3.296   0.946 -0.8895  0.8311  0.3392
17384SOL     OW53345   5.987   2.461   7.699 -0.2961 -0.2653  0.1266
17384SOL    HW153346   5.901   2.494   7.727  0.6404  0.4449  2.3831
17384SOL    HW253347   6.023   2.531   7.645  0.6969  1.5979  2.9712
17385SOL     OW53348   7.857   1.337   0.393  0.0789  0.1200  0.3772
17385SOL    HW153349   7.947   1.349   0.362  0.3245 -0.5621  0.8050
17385SOL    HW253350   7.864   1.335   0.488 -0.0097 -2.4347  0.4102
17386SOL     OW53351   8.569   1.150   4.901 -0.2293  0.3459  0.0528
17386SOL    HW153352   8.516   1.229   4.899  0.0019  0.5430 -2.5384
17386SOL    HW253353   8.530   1.094   4.833  0.4775 -1.1624  0.8394
17387SOL     OW53354   7.557   0.670   0.227 -0.4096  0.6437 -0.7695
17387SOL    HW153355   7.620   0.740   0.245  1.4041 -0.4142 -2.3999
17387SOL    HW253356   7.500   0.667   0.303  0.9165  2.3480  0.3631
17388SOL     OW53357   5.997   4.987   8.100  0.3353  0.1649 -0.1671
17388SOL    HW153358   5.979   5.081   8.088  2.2405  0.4156 -1.5903
17388SOL    HW253359   5.956   4.946   8.024 -1.3923 -0.3457  0.9816
17389SOL     OW53360   5.410   7.031   0.000  0.4201  0.7134 -0.0903
17389SOL    HW153361   5.315   7.033   0.000  0.3713  2.4496  1.9130
17389SOL    HW253362   5.432   6.940   0.022 -0.6888 -0.0001 -1.7110
17390SOL     OW53363   6.485   2.357   5.791  0.4846  0.2272 -0.4367
17390SOL    HW153364   6.404   2.331   5.836  1.0010  0.2756  0.5446
17390SOL    HW253365   6.550   2.294   5.820  0.9664  0.6162 -0.6618
17391SOL     OW53366   3.269   6.623   6.768 -0.4231  0.4683 -0.7893
17391SOL    HW153367   3.176   6.612   6.789 -0.3132 -0.2345 -0.6332
17391SOL    HW253368   3.292   6.709   6.805 -0.5810 -0.1155  0.7662
17392SOL     OW53369   3.703   2.242   4.436  0.4997 -0.4040  0.8525
17392SOL    HW153370   3.721   2.175   4.503 -1.0682  0.2890  2.0485
17392SOL    HW253371   3.618   2.277   4.461 -1.0086 -1.3062 -2.5573
17393SOL     OW53372   7.965   5.803   7.384  0.5441 -0.1072  0.2080
17393SOL    HW153373   7.990   5.748   7.309 -1.1993  0.3392 -0.7434
17393SOL    HW253374   7.937   5.740   7.450 -1.6933 -0.4521 -0.9674
17394SOL     OW53375   5.260   8.331   1.166 -0.8019 -0.1528  0.0003
17394SOL    HW153376   5.241   8.268   1.096  0.4117 -0.0808 -0.4194
17394SOL    HW253377   5.204   8.406   1.147  0.2131  0.2868 -1.5106
17395SOL     OW53378   4.180   4.758   1.279  0.4466  0.0472 -0.1220
17395SOL    HW153379   4.105   4.761   1.219 -1.2940  0.9219  1.9914
17395SOL    HW253380   4.229   4.838   1.260  0.8549 -0.4887 -1.4638
17396SOL     OW53381   2.344   8.483   5.760  0.8454  0.2530 -0.3984
17396SOL    HW153382   2.259   8.495   5.803  0.3004  0.0715 -1.3798
17396SOL    HW253383   2.360   8.388   5.763  1.5349  0.3842  0.7094
17397SOL     OW53384   8.360   7.662   1.420 -0.5568 -0.5533 -0.0939
17397SOL    HW153385   8.339   7.630   1.508 -0.6792  3.0051  1.3536
17397SOL    HW253386   8.276   7.663   1.374 -0.4538 -2.6786 -0.4284
17398SOL     OW53387   6.211   7.701   4.238 -0.0720 -0.8041 -0.2471
17398SOL    HW153388   6.283   7.743   4.285 -0.7544 -0.1306  0.2213
17398SOL    HW253389   6.224   7.607   4.253  1.1210 -0.7521 -0.8001
17399SOL     OW53390   2.582   7.035   1.738  0.3719  0.0341 -0.1938
17399SOL    HW153391   2.649   7.086   1.784 -0.4433 -0.2833  1.4042
17399SOL    HW253392   2.511   7.097   1.724  0.1115 -0.1919  0.1178
17400SOL     OW53393   3.937   1.528   1.890  0.0774 -0.0931  0.3977
17400SOL    HW153394   3.935   1.623   1.876  0.8017 -0.2616 -1.1069
17400SOL    HW253395   3.927   1.491   1.802 -0.9892 -1.4303  1.0541
17401SOL     OW53396   6.397   6.311   5.042  0.1771  0.3982 -0.4100
17401SOL    HW153397   6.317   6.276   5.082 -0.1169  1.6734  0.1551
17401SOL    HW253398   6.378   6.309   4.948  0.0300 -0.5947 -0.3712
17402SOL     OW53399   8.464   3.236   6.129 -0.5769  0.2333 -0.0548
17402SOL    HW153400   8.401   3.271   6.192 -0.0475  2.1049 -0.5192
17402SOL    HW253401   8.417   3.165   6.086 -0.7640 -1.5523  2.8237
17403SOL     OW53402   1.142   6.823   5.665 -0.3719 -0.1199 -0.3022
17403SOL    HW153403   1.202   6.795   5.734 -0.3928  1.1163  0.2390
17403SOL    HW253404   1.194   6.822   5.585  0.5806  1.5394  0.2551
17404SOL     OW53405   3.838   2.759   5.013  0.0190 -0.3723 -0.1620
17404SOL    HW153406   3.901   2.767   5.085  0.1786  1.2436 -0.4515
17404SOL    HW253407   3.860   2.675   4.972  0.2726 -1.0599  1.3269
17405SOL     OW53408   4.288   2.611   1.668 -0.3527  0.7459 -0.4165
17405SOL    HW153409   4.221   2.572   1.612 -0.9013  1.1411 -0.0521
17405SOL    HW253410   4.240   2.675   1.721  0.2252  0.6795  0.2027
17406SOL     OW53411   2.776   0.543   4.969 -0.1447  0.0644  0.0030
17406SOL    HW153412   2.758   0.559   5.061 -1.9196  0.3584 -0.3570
17406SOL    HW253413   2.850   0.600   4.948 -0.3823  0.7542  0.9973
17407SOL     OW53414   4.071   1.455   0.606  0.5682  0.2120 -0.4370
17407SOL    HW153415   4.002   1.521   0.609 -0.3938 -0.7635 -0.5271
17407SOL    HW253416   4.124   1.473   0.683 -1.8809 -1.2102  1.7261
17408SOL     OW53417   5.414   8.041   2.930  0.6970 -0.2938 -0.1314
17408SOL    HW153418   5.434   7.963   2.879 -1.4529 -0.6062 -0.5984
17408SOL    HW253419   5.356   8.011   2.999  1.4102  0.5854  0.8825
17409SOL     OW53420   1.254   6.103   0.786  0.2290 -0.4407  0.0248
17409SOL    HW153421   1.242   6.020   0.832  1.4800  0.7378  2.6686
17409SOL    HW253422   1.179   6.156   0.812 -0.4119 -0.5941 -1.4249
17410SOL     OW53423   8.229   7.962   4.783 -0.0091  0.6916  0.1410
17410SOL    HW153424   8.134   7.952   4.788 -0.0528  1.6050  1.6958
17410SOL    HW253425   8.248   8.041   4.833  1.8074 -0.8789  2.0934
17411SOL     OW53426   3.014   4.813   6.371  0.2087 -0.0678 -0.0506
17411SOL    HW153427   2.993   4.882   6.308  0.0200  0.0071  0.0918
17411SOL    HW253428   2.986   4.849   6.456  3.1908  1.1193  0.5716
17412SOL     OW53429   4.620   6.667   2.169 -0.3936 -0.2745 -0.2897
17412SOL    HW153430   4.585   6.753   2.194  1.3491  0.1218  0.9488
17412SOL    HW253431   4.642   6.676   2.076 -0.5461  0.4930 -0.2571
17413SOL     OW53432   0.509   3.372   5.255 -1.0207  0.4155 -0.2850
17413SOL    HW153433   0.430   3.422   5.278 -1.4979 -1.1609  1.8195
17413SOL    HW253434   0.580   3.416   5.301 -1.6906 -1.6130  3.0156
17414SOL     OW53435   1.388   4.315   0.167 -0.3740 -0.4126  0.1282
17414SOL    HW153436   1.416   4.402   0.137 -1.5633 -0.8499 -2.5093
17414SOL    HW253437   1.463   4.281   0.215  0.2783  1.8872  0.8586
17415SOL     OW53438   7.458   5.842   5.943  0.4407 -0.1580 -0.3609
17415SOL    HW153439   7.430   5.926   5.908 -1.6502 -0.7075 -0.1599
17415SOL    HW253440   7.378   5.789   5.946  1.8876 -2.6637 -1.8543
17416SOL     OW53441   3.188   7.286   6.744 -0.1678  0.0450  0.0150
17416SOL    HW153442   3.096   7.262   6.738 -0.2975  0.4742  0.2130
17416SOL    HW253443   3.192   7.346   6.819  0.2527  0.1145 -0.0602
17417SOL     OW53444   4.400   7.012   8.111 -0.0395 -0.3831 -0.0347
17417SOL    HW153445   4.490   7.042   8.120  0.0399 -0.5218 -0.3380
17417SOL    HW253446   4.387   7.004   8.016 -0.7758  0.8621 -0.0531
17418SOL     OW53447   6.772   2.152   8.089 -0.3148  0.1262  0.0631
17418SOL    HW153448   6.837   2.223   8.091  1.4288 -1.3622 -0.9662
17418SOL    HW253449   6.690   2.195   8.112  0.6332  2.5201 -0.6705
17419SOL     OW53450   0.161   3.479   4.095 -0.3995 -0.1019 -0.0368
17419SOL    HW153451   0.228   3.413   4.074 -0.3394  0.1147 -0.5483
17419SOL    HW253452   0.209   3.562   4.096 -0.6713  0.0612 -0.4609
17420SOL     OW53453   1.006   3.192   8.272 -0.2899 -0.0580  0.4317
17420SOL    HW153454   1.048   3.253   8.332  0.3585 -0.1287  0.0525
17420SOL    HW253455   0.916   3.223   8.266 -0.1349  0.4691  0.7549
17421SOL     OW53456   1.977   2.382   6.749  0.6011  0.3027 -0.3032
17421SOL    HW153457   2.055   2.433   6.770  2.7037 -2.4038 -1.0074
17421SOL    HW253458   1.964   2.325   6.825  1.9628 -2.2087 -1.8266
17422SOL     OW53459   7.913   6.290   1.478 -0.2213  0.6806  0.0508
17422SOL    HW153460   7.949   6.376   1.501  1.6770  0.4827 -1.9092
17422SOL    HW253461   7.889   6.298   1.386  1.8353 -1.4306 -0.7399
17423SOL     OW53462   0.613   3.697   8.285 -0.1641 -0.0387 -0.1767
17423SOL    HW153463   0.563   3.665   8.360 -4.5202 -1.4206 -3.2377
17423SOL    HW253464   0.678   3.628   8.269 -1.1094 -1.1608  0.6399
17424SOL     OW53465   0.607   1.764   4.975  0.0785  0.0586  0.1983
17424SOL    HW153466   0.594   1.713   4.895 -0.8065 -0.3330  0.5764
17424SOL    HW253467   0.531   1.822   4.979  0.2936  0.3193  0.5711
17425SOL     OW53468   2.787   5.802   2.410  0.1675  0.1193 -0.2565
17425SOL    HW153469   2.757   5.774   2.323  0.4636 -0.2248 -0.2540
17425SOL    HW253470   2.737   5.748   2.471  0.7111 -0.3906 -0.2495
17426SOL     OW53471   3.789   6.201   8.455 -0.1165 -0.0387  0.8246
17426SOL    HW153472   3.877   6.218   8.424  0.2524 -0.5615  1.5565
17426SOL    HW253473   3.742   6.282   8.439  0.4047  0.1387  0.1371
17427SOL     OW53474   1.781   0.714   3.245  0.2146 -0.2107 -0.4570
17427SOL    HW153475   1.693   0.731   3.212 -0.9541  0.0077  2.4927
17427SOL    HW253476   1.774   0.725   3.340  2.8465 -2.6062  0.1684
17428SOL     OW53477   6.516   3.122   5.450 -0.1031  0.1209  0.2852
17428SOL    HW153478   6.504   3.164   5.535 -1.6771  1.1140 -0.4006
17428SOL    HW253479   6.606   3.088   5.454  0.9910  2.7764  1.2283
17429SOL     OW53480   6.429   6.074   4.727  0.0376 -0.3819  0.8073
17429SOL    HW153481   6.410   6.147   4.786 -0.7734  1.0124 -1.0578
17429SOL    HW253482   6.512   6.099   4.684 -0.9550  0.2138 -0.8688
17430SOL     OW53483   0.250   0.523   1.007  0.6053 -0.3345  0.2547
17430SOL    HW153484   0.161   0.541   0.979  0.0417 -0.1557  2.0132
17430SOL    HW253485   0.296   0.607   0.997 -0.3510  0.5279  2.4650
17431SOL     OW53486   5.128   5.644   7.675  0.2850  0.5359  0.2924
17431SOL    HW153487   5.162   5.558   7.650 -1.5988 -0.3027  0.3844
17431SOL    HW253488   5.205   5.699   7.683  1.7555 -1.6026  2.0296
17432SOL     OW53489   4.782   3.576   0.863  0.2273  0.1524  0.2576
17432SOL    HW153490   4.704   3.595   0.916  0.4398  0.1084  0.5856
17432SOL    HW253491   4.773   3.483   0.840 -0.6822  0.5508 -1.1358
17433SOL     OW53492   8.491   1.894   3.769 -0.0539  0.7557  0.0472
17433SOL    HW153493   8.424   1.883   3.837 -0.5401 -0.1438 -0.5625
17433SOL    HW253494   8.551   1.821   3.783 -1.2517 -0.6694 -1.6908
17434SOL     OW53495   5.298   1.828   0.331 -0.3656 -0.2191 -0.6922
17434SOL    HW153496   5.386   1.834   0.368 -0.7328 -0.3714  0.2112
17434SOL    HW253497   5.309   1.860   0.241  0.1328  2.2124  0.1622
17435SOL     OW53498   2.644   1.740   6.027  0.3805  0.6216 -0.0298
17435SOL    HW153499   2.729   1.769   5.995  0.0661  0.4952 -1.0223
17435SOL    HW253500   2.585   1.749   5.952  0.5271 -3.8828 -1.0153
17436SOL     OW53501   6.526   0.534   6.853  0.3192 -0.5691 -0.0673
17436SOL    HW153502   6.564   0.505   6.770 -1.1584  0.3939 -1.1291
17436SOL    HW253503   6.432   0.520   6.844 -0.0588  1.0692  0.7790
17437SOL     OW53504   5.864   7.712   0.348 -0.1495 -0.0137  0.2292
17437SOL    HW153505   5.953   7.683   0.367 -0.7501 -1.0141  1.7091
17437SOL    HW253506   5.840   7.766   0.424 -1.5969 -1.6784  1.0266
17438SOL     OW53507   2.564   6.953   5.040 -0.8229  0.1749 -0.0930
17438SOL    HW153508   2.554   7.020   4.971 -1.3420 -0.9368 -1.1367
17438SOL    HW253509   2.481   6.906   5.039 -0.5985 -0.2524  0.8798
17439SOL     OW53510   6.827   0.858   6.322 -0.3067 -0.5515  0.2639
17439SOL    HW153511   6.835   0.953   6.314 -0.3801 -0.6006 -0.4688
17439SOL    HW253512   6.823   0.827   6.231  0.5117 -1.3272  0.4870
17440SOL     OW53513   1.856   3.165   7.055 -0.3506 -0.5076  0.0047
17440SOL    HW153514   1.820   3.202   6.975  0.6715 -0.8785 -0.6536
17440SOL    HW253515   1.792   3.186   7.123 -1.1302 -0.0042 -0.8680
17441SOL     OW53516   0.084   4.531   3.636  0.1362 -0.0923 -0.5628
17441SOL    HW153517   0.045   4.609   3.595 -2.4463 -1.5003 -0.9679
17441SOL    HW253518   0.048   4.457   3.587  3.0067 -1.6070 -0.6106
17442SOL     OW53519   3.621   8.228   0.832 -0.2560 -0.2481  0.8075
17442SOL    HW153520   3.591   8.139   0.813 -0.5917  0.0696 -0.1834
17442SOL    HW253521   3.573   8.254   0.911  0.2600 -1.1371  1.4438
17443SOL     OW53522   8.362   0.093   0.118  0.4884  0.2486  0.0419
17443SOL    HW153523   8.409   0.175   0.107  0.4214  0.2033 -0.6061
17443SOL    HW253524   8.338   0.091   0.211  3.7846 -0.8142  1.0300
17444SOL     OW53525   6.220   5.058   6.098  0.8429  0.1499 -0.4824
17444SOL    HW153526   6.293   5.114   6.124 -0.6535  1.5661  0.8927
17444SOL    HW253527   6.214   4.993   6.169 -0.2597  1.0894  0.3187
17445SOL     OW53528   0.451   4.150   6.252  0.1909  0.2073  0.8067
17445SOL    HW153529   0.368   4.173   6.294 -0.5627  0.3408 -0.7149
17445SOL    HW253530   0.449   4.055   6.244 -0.2912  0.2946 -0.1725
17446SOL     OW53531   7.022   0.456   5.491  0.2520  0.2664  0.1209
17446SOL    HW153532   6.974   0.383   5.451  0.9895  0.8825 -2.0277
17446SOL    HW253533   7.112   0.426   5.494  0.5707  1.0889 -0.8289
17447SOL     OW53534   8.350   2.674   4.210  0.5812  0.3209 -0.1009
17447SOL    HW153535   8.365   2.622   4.131  1.2128  1.1339 -0.5246
17447SOL    HW253536   8.392   2.624   4.280 -1.3211 -1.2083  0.0455
17448SOL     OW53537   5.628   6.718   6.884  0.7109  0.3778 -0.2306
17448SOL    HW153538   5.542   6.760   6.884  0.0833 -0.8135  1.2879
17448SOL    HW253539   5.628   6.663   6.806 -0.1435 -0.0668  0.0790
17449SOL     OW53540   2.572   4.608   5.801 -0.0991  0.3325 -0.8042
17449SOL    HW153541   2.486   4.642   5.826  0.3691  1.1214 -0.2220
17449SOL    HW253542   2.592   4.542   5.867 -0.4185 -0.1359 -1.1658
17450SOL     OW53543   0.138   4.108   7.175 -0.5520 -0.2938 -0.0160
17450SOL    HW153544   0.084   4.060   7.238 -1.2281 -0.6452 -0.8359
17450SOL    HW253545   0.225   4.069   7.182 -0.6483 -0.3935  0.6285
17451SOL     OW53546   4.572   7.057   6.717  0.2700  0.6610 -0.2502
17451SOL    HW153547   4.572   6.988   6.651 -0.5651 -0.3126  0.7307
17451SOL    HW253548   4.661   7.057   6.752  0.4223  0.4626 -0.6337
17452SOL     OW53549   7.086   5.068   3.108  0.4183 -0.0329  0.1473
17452SOL    HW153550   7.047   4.981   3.117  0.5148 -0.1530 -0.5029
17452SOL    HW253551   7.180   5.052   3.105  0.4472  0.1163  0.2544
17453SOL     OW53552   0.115   3.169   6.822  0.2956  0.7232 -0.8902
17453SOL    HW153553   0.048   3.185   6.755  0.0515 -0.7742 -1.0501
17453SOL    HW253554   0.163   3.251   6.828 -0.6242  1.3657 -1.8356
17454SOL     OW53555   6.395   5.696   6.778 -0.4303 -0.3176  0.2868
17454SOL    HW153556   6.446   5.667   6.854 -1.1051 -2.9180 -0.1469
17454SOL    HW253557   6.443   5.663   6.702 -1.2637 -0.3265 -0.2601
17455SOL     OW53558   1.815   5.790   5.729  0.2073  0.0941  0.7879
17455SOL    HW153559   1.870   5.790   5.807 -0.9452 -1.4400  1.6653
17455SOL    HW253560   1.760   5.867   5.738 -0.3208 -0.3897  1.8265
17456SOL     OW53561   3.534   0.663   4.160 -0.4820 -0.1035 -0.3294
17456SOL    HW153562   3.562   0.735   4.104  0.3008 -0.0359  0.1329
17456SOL    HW253563   3.614   0.612   4.176 -1.1992 -1.7424 -1.5627
17457SOL     OW53564   7.710   6.548   0.229 -0.5160  0.1382  0.1770
17457SOL    HW153565   7.704   6.528   0.135  1.0788  1.6734 -0.3088
17457SOL    HW253566   7.774   6.485   0.262 -1.0831 -0.4079  0.2591
17458SOL     OW53567   3.370   1.536   6.570 -0.1010  0.4682 -0.2226
17458SOL    HW153568   3.342   1.524   6.479  0.7835  0.4438 -0.5032
17458SOL    HW253569   3.315   1.477   6.621  1.0996 -1.4410 -1.0394
17459SOL     OW53570   3.761   1.695   2.389  0.3163  0.4359 -0.0099
17459SOL    HW153571   3.808   1.702   2.472 -2.8954  1.5536  1.8910
17459SOL    HW253572   3.757   1.785   2.357 -0.6604  0.3916 -0.0325
17460SOL     OW53573   1.717   8.292   5.264 -0.4994  0.1613 -0.5734
17460SOL    HW153574   1.794   8.278   5.209 -0.6350 -1.7141 -0.3503
17460SOL    HW253575   1.646   8.307   5.203 -0.3496 -0.2702 -0.8542
17461SOL     OW53576   2.530   6.524   6.924  0.5943  0.2752 -0.3179
17461SOL    HW153577   2.471   6.552   6.854  1.0810 -2.1491 -1.8190
17461SOL    HW253578   2.616   6.553   6.896  0.4998  1.5464  0.6056
17462SOL     OW53579   1.015   0.622   8.345 -0.0775 -0.0949 -0.5386
17462SOL    HW153580   0.970   0.667   8.417  0.3480 -0.6900  0.1216
17462SOL    HW253581   0.999   0.676   8.269 -1.1592  0.1793 -0.1404
17463SOL     OW53582   1.863   5.563   2.922  0.0569 -0.5298 -0.0403
17463SOL    HW153583   1.849   5.560   3.017  0.3607 -1.0167 -0.0092
17463SOL    HW253584   1.931   5.498   2.905  0.1136 -0.3403 -0.5764
17464SOL     OW53585   3.097   5.800   4.392  0.3018  0.3937 -0.8902
17464SOL    HW153586   3.025   5.859   4.371 -1.0773 -0.3238  1.4534
17464SOL    HW253587   3.139   5.781   4.308 -0.8590  2.5606 -2.0401
17465SOL     OW53588   2.311   5.644   8.305 -0.3344  0.0610  0.2056
17465SOL    HW153589   2.358   5.674   8.382  1.8604  1.6108 -1.6052
17465SOL    HW253590   2.350   5.558   8.285  0.1035  0.2988  0.0290
17466SOL     OW53591   8.046   1.216   5.764  0.1574  0.0151  0.2514
17466SOL    HW153592   8.080   1.247   5.680  2.5202 -1.8015  0.4202
17466SOL    HW253593   8.073   1.283   5.826  2.3174 -0.6605  0.1395
17467SOL     OW53594   7.471   5.682   4.497  0.2893 -0.4168  0.3494
17467SOL    HW153595   7.558   5.720   4.498 -0.4651  1.4009  1.1249
17467SOL    HW253596   7.434   5.702   4.583 -1.6572  0.7614 -0.6798
17468SOL     OW53597   6.014   5.917   3.995 -0.2259 -0.3400  0.2119
17468SOL    HW153598   6.068   5.862   3.938 -1.9557  0.9138 -2.8983
17468SOL    HW253599   5.961   5.856   4.045 -0.1962 -1.5514 -1.1785
17469SOL     OW53600   8.297   3.670   3.762 -0.0156 -0.5166 -0.2099
17469SOL    HW153601   8.360   3.682   3.833  0.3597 -0.0271 -0.6283
17469SOL    HW253602   8.350   3.661   3.683 -0.3677 -2.1960 -0.3070
17470SOL     OW53603   2.901   4.825   2.586 -0.0721 -0.6734  0.7399
17470SOL    HW153604   2.913   4.920   2.581 -1.3946 -0.5461 -1.4892
17470SOL    HW253605   2.988   4.788   2.574  0.1798  0.2509 -0.3766
17471SOL     OW53606   7.136   0.594   7.280  0.1857 -0.0373  0.1106
17471SOL    HW153607   7.119   0.512   7.325 -0.2708  0.4423  0.8279
17471SOL    HW253608   7.050   0.625   7.252  0.3746  0.1063 -0.3274
17472SOL     OW53609   4.996   3.199   7.490  0.1725  0.4600  0.1201
17472SOL    HW153610   5.023   3.107   7.494  0.0738  0.2889 -1.7755
17472SOL    HW253611   5.077   3.247   7.475  0.0992  0.5392 -0.0294
17473SOL     OW53612   1.755   0.215   6.123 -0.2304  0.3440  0.3130
17473SOL    HW153613   1.757   0.149   6.054  1.5719 -0.6233  1.2078
17473SOL    HW253614   1.688   0.278   6.095 -2.4640 -2.1252 -0.2740
17474SOL     OW53615   7.607   7.021   1.313  0.1880  0.3827 -0.3196
17474SOL    HW153616   7.522   6.983   1.336  1.3197 -1.6410  0.8183
17474SOL    HW253617   7.614   7.099   1.369 -0.6073  0.1242  0.1539
17475SOL     OW53618   0.539   4.287   8.488  0.3800 -0.6366  0.3985
17475SOL    HW153619   0.541   4.383   8.487  0.7476 -0.5319 -3.2361
17475SOL    HW253620   0.455   4.264   8.448  1.3947 -1.7050 -1.2513
17476SOL     OW53621   5.358   0.239   5.649 -0.1093  0.8276  0.8587
17476SOL    HW153622   5.310   0.158   5.670 -0.8147  0.9923 -0.0297
17476SOL    HW253623   5.449   0.211   5.639 -0.8507 -0.8734 -3.9418
17477SOL     OW53624   7.908   8.247   4.715  0.3787 -0.0454  0.5345
17477SOL    HW153625   7.926   8.160   4.751 -0.6077  0.3503  2.0988
17477SOL    HW253626   7.984   8.299   4.739  0.0477  0.0320  1.4524
17478SOL     OW53627   0.241   5.858   7.485 -0.0821 -0.4479  0.5085
17478SOL    HW153628   0.306   5.900   7.541  0.9198  0.1987 -1.0658
17478SOL    HW253629   0.160   5.863   7.535  0.1964  2.4848  0.8452
17479SOL     OW53630   1.826   8.176   7.259  0.3091  0.1761 -0.3842
17479SOL    HW153631   1.921   8.161   7.263  0.3081  0.4679  1.2923
17479SOL    HW253632   1.794   8.153   7.346 -1.2513 -0.3821 -1.0715
17480SOL     OW53633   5.092   2.167   8.528  0.0258 -0.1573 -0.2085
17480SOL    HW153634   5.046   2.184   8.446  0.7546 -2.0549 -1.0749
17480SOL    HW253635   5.102   2.253   8.568 -2.3813  0.5651 -0.9748
17481SOL     OW53636   2.599   6.150   4.765  0.2778 -0.0384 -0.0902
17481SOL    HW153637   2.597   6.190   4.677  3.2527 -0.3840 -0.4280
17481SOL    HW253638   2.609   6.056   4.749 -0.3128 -0.2301  0.6331
17482SOL     OW53639   1.739   7.152   4.596  0.5442 -0.3668 -0.4759
17482SOL    HW153640   1.702   7.174   4.682  0.6048 -1.1265 -0.2402
17482SOL    HW253641   1.830   7.130   4.614  0.9111  0.7181 -0.9392
17483SOL     OW53642   1.154   0.189   1.250  0.0989  0.0099 -0.0348
17483SOL    HW153643   1.196   0.116   1.295 -0.0584  0.3941  0.7551
17483SOL    HW253644   1.178   0.267   1.301 -0.7561  0.3546 -0.1242
17484SOL     OW53645   7.967   1.920   5.236  0.1115  0.1109  0.0862
17484SOL    HW153646   7.941   1.911   5.328 -1.9044  0.0456 -0.4254
17484SOL    HW253647   8.002   2.009   5.229 -1.0657  0.6407  0.6592
17485SOL     OW53648   3.770   3.458   7.848  0.3239  0.1362  0.3742
17485SOL    HW153649   3.833   3.410   7.900  0.7943  0.6429  0.2843
17485SOL    HW253650   3.744   3.397   7.779  0.9325  0.0195  0.2418
17486SOL     OW53651   5.256   0.305   3.364 -0.1520 -0.4283 -0.0370
17486SOL    HW153652   5.244   0.385   3.313  0.2046 -0.5667 -0.3436
17486SOL    HW253653   5.342   0.273   3.338  0.3029 -0.1801  1.1083
17487SOL     OW53654   2.999   0.217   8.003  0.3253  0.3052 -0.4608
17487SOL    HW153655   2.967   0.165   8.077  0.0746  1.0939 -0.0041
17487SOL    HW253656   3.065   0.276   8.041 -0.1711  1.0722 -0.7609
17488SOL     OW53657   3.252   8.395   6.508 -0.0056 -0.6205  0.4876
17488SOL    HW153658   3.199   8.366   6.582 -0.2282 -1.2335  0.0974
17488SOL    HW253659   3.249   8.322   6.446 -2.9069  1.2505 -1.8245
17489SOL     OW53660   4.085   1.388   3.179 -0.4314  0.1008  0.4999
17489SOL    HW153661   4.149   1.455   3.154 -0.5797  0.3155  0.6861
17489SOL    HW253662   4.138   1.313   3.206 -0.2540 -0.3937 -1.0786
17490SOL     OW53663   7.915   0.876   6.629 -0.8048 -0.3068 -0.5053
17490SOL    HW153664   7.916   0.836   6.716  0.3195  1.3344  0.2843
17490SOL    HW253665   7.825   0.863   6.598 -1.8743  0.9593  1.8151
17491SOL     OW53666   0.265   6.081   8.020 -0.2882 -0.1635  0.0757
17491SOL    HW153667   0.233   6.144   7.955 -1.7893 -1.8803 -0.9377
17491SOL    HW253668   0.237   5.996   7.987  0.7833 -1.2963  1.9176
17492SOL     OW53669   8.293   1.007   1.554 -0.3401 -0.2087 -0.1593
17492SOL    HW153670   8.278   1.024   1.461 -1.6011  0.2049  0.1004
17492SOL    HW253671   8.329   1.089   1.589 -0.1830 -0.2557 -0.2091
17493SOL     OW53672   8.209   6.442   6.808  0.3836 -0.3543 -0.0683
17493SOL    HW153673   8.284   6.492   6.841  0.3859  1.0310 -2.0081
17493SOL    HW253674   8.248   6.381   6.745 -0.1313  1.2446 -2.0685
17494SOL     OW53675   0.002   1.209   4.074  0.3619 -0.3663  0.0334
17494SOL    HW153676  -0.089   1.198   4.103 -0.4206  1.7723 -1.3825
17494SOL    HW253677  -0.005   1.240   3.984  2.5259 -0.2974 -0.1612
17495SOL     OW53678   0.437   4.023   0.805 -0.8530  0.4494 -0.3072
17495SOL    HW153679   0.343   4.006   0.812 -0.8056  0.0097 -0.7275
17495SOL    HW253680   0.471   4.003   0.893 -0.8201 -1.5579 -0.7322
17496SOL     OW53681   1.981   5.500   3.686  0.3222 -0.5950  0.3790
17496SOL    HW153682   1.917   5.432   3.705 -0.0710 -0.6214 -0.9477
17496SOL    HW253683   1.990   5.499   3.591  2.3339 -0.6277  0.5107
17497SOL     OW53684   4.718   0.984   1.606 -0.0848 -0.0304 -0.3493
17497SOL    HW153685   4.799   0.985   1.658 -1.7190  0.4972  2.3701
17497SOL    HW253686   4.684   0.895   1.615  0.9017 -0.7729 -2.8800
17498SOL     OW53687   3.030   2.359   1.030  0.0560 -0.1417  0.1695
17498SOL    HW153688   2.994   2.413   0.959 -0.6770 -0.4303  0.3124
17498SOL    HW253689   3.117   2.335   1.000 -1.3260 -2.8824 -2.1338
17499SOL     OW53690   7.823   0.983   5.617  0.0373 -0.2382  0.2934
17499SOL    HW153691   7.829   1.076   5.639  1.8379 -0.5843  1.4845
17499SOL    HW253692   7.904   0.965   5.569 -1.8136 -0.5014 -3.0164
17500SOL     OW53693   8.463   8.451   4.338 -0.3496 -0.8983 -0.3100
17500SOL    HW153694   8.377   8.418   4.364 -0.9223 -0.9608 -2.0969
17500SOL    HW253695   8.521   8.376   4.343 -1.3306 -1.9604 -2.9559
17501SOL     OW53696   7.497   1.818   4.229 -0.4902  0.5242 -0.4894
17501SOL    HW153697   7.544   1.836   4.311 -1.3282  0.3393  0.0523
17501SOL    HW253698   7.405   1.837   4.250 -0.6144  1.3268 -1.6497
17502SOL     OW53699   3.078   0.238   0.486  0.0860  0.0411  0.5487
17502SOL    HW153700   2.985   0.239   0.510 -0.1320 -0.1895 -0.2507
17502SOL    HW253701   3.094   0.149   0.455  0.5922  0.0636  0.7411
17503SOL     OW53702   4.064   4.005   2.861 -0.1415  0.8158  0.3519
17503SOL    HW153703   4.078   3.912   2.841 -3.1001  0.6365 -1.5310
17503SOL    HW253704   4.096   4.016   2.951  2.9552 -1.2765 -0.3587
17504SOL     OW53705   6.588   6.464   3.216  0.1766  0.1484 -0.3814
17504SOL    HW153706   6.635   6.517   3.280 -1.3679  0.7422  0.3113
17504SOL    HW253707   6.656   6.418   3.167  1.6629  3.2012 -1.4347
17505SOL     OW53708   6.042   2.255   7.152 -0.2362 -0.6158 -0.6542
17505SOL    HW153709   6.112   2.192   7.168  0.9917  0.4081 -1.7353
17505SOL    HW253710   6.054   2.323   7.217  0.1366 -0.1600 -1.1898
17506SOL     OW53711   0.576   4.201   1.741  0.1515  0.0010 -0.5516
17506SOL    HW153712   0.586   4.276   1.683  1.1192  1.6419  1.5902
17506SOL    HW253713   0.555   4.128   1.683  1.9808  1.3088 -3.0664
17507SOL     OW53714   4.741   3.313   1.776 -0.1736 -0.0297 -0.2945
17507SOL    HW153715   4.768   3.397   1.739  0.8611 -0.1552  0.1506
17507SOL    HW253716   4.817   3.283   1.824 -1.2452 -0.2119  1.3501
17508SOL     OW53717   7.330   5.641   6.329 -0.2808 -0.1556 -0.4764
17508SOL    HW153718   7.249   5.685   6.357  0.3925  0.9796 -0.2686
17508SOL    HW253719   7.388   5.647   6.404  0.8105  1.0829 -1.3961
17509SOL     OW53720   5.851   4.787   1.938 -0.1579 -0.0559 -0.0938
17509SOL    HW153721   5.792   4.713   1.924  0.2229 -0.8733  2.1814
17509SOL    HW253722   5.829   4.820   2.025  1.7623  0.4897  0.2492
17510SOL     OW53723   0.598   0.620   5.992  0.0106  0.1907 -0.2738
17510SOL    HW153724   0.670   0.572   5.952 -0.8140 -0.7514 -0.6707
17510SOL    HW253725   0.530   0.554   6.007 -1.7132  1.4075 -2.1506
17511SOL     OW53726   0.437   7.045   2.830 -0.3952 -0.4416  0.0299
17511SOL    HW153727   0.349   7.083   2.829 -0.9491 -1.6675 -1.4215
17511SOL    HW253728   0.439   6.987   2.754  1.2666 -1.3841  0.7418
17512SOL     OW53729   8.278   7.534   1.924 -0.0656  0.0181 -0.2898
17512SOL    HW153730   8.338   7.461   1.941  0.5684  0.8849  1.5311
17512SOL    HW253731   8.332   7.613   1.935 -0.9653  0.7857 -1.1769
17513SOL     OW53732   6.361   2.126   4.021 -0.4538  0.0739  0.0960
17513SOL    HW153733   6.447   2.152   4.054 -0.0628 -1.1656  0.1011
17513SOL    HW253734   6.367   2.138   3.926  0.0797 -0.9410 -0.0141
17514SOL     OW53735   7.812   3.765   1.403  0.0613 -0.7419 -0.4387
17514SOL    HW153736   7.907   3.769   1.406  0.0222  0.1318 -0.0904
17514SOL    HW253737   7.787   3.707   1.475  0.2649  0.2824  0.4739
17515SOL     OW53738   6.018   0.926   4.249  0.2808  0.0541  0.2219
17515SOL    HW153739   6.073   0.863   4.203  1.4237  0.7451  0.5960
17515SOL    HW253740   5.934   0.881   4.261  0.3009 -0.5223 -1.5773
17516SOL     OW53741   8.466   6.637   1.738  0.3194 -0.6402  0.1488
17516SOL    HW153742   8.376   6.661   1.716  1.2017  2.3041 -0.6981
17516SOL    HW253743   8.478   6.670   1.828  0.9627  0.3694 -0.2919
17517SOL     OW53744   4.118   5.863   8.246 -0.0259  0.3049 -0.2515
17517SOL    HW153745   4.177   5.930   8.281 -1.1384  0.1123  2.2148
17517SOL    HW253746   4.031   5.902   8.252 -0.8426 -1.6039  2.2594
17518SOL     OW53747   0.651   0.724   3.126  0.0397  0.0115  0.7795
17518SOL    HW153748   0.713   0.784   3.084  0.1383 -2.2246 -2.6909
17518SOL    HW253749   0.566   0.747   3.088 -0.2592 -0.6546  1.0283
17519SOL     OW53750   1.908   6.902   7.339  0.0872 -0.4061 -0.7167
17519SOL    HW153751   1.906   6.877   7.432  0.6091 -1.1701 -0.8991
17519SOL    HW253752   1.991   6.946   7.328 -0.1056 -0.0522 -0.7618
17520SOL     OW53753   5.224   1.980   6.054  0.4409  0.5614  0.1632
17520SOL    HW153754   5.196   2.067   6.028 -0.4785  0.8793  2.0914
17520SOL    HW253755   5.177   1.962   6.135  1.3438 -1.3387  0.3259
17521SOL     OW53756   7.235   3.140   4.431 -0.0303 -0.4395 -0.0984
17521SOL    HW153757   7.184   3.153   4.511  0.0470  0.0233 -0.1182
17521SOL    HW253758   7.231   3.225   4.387 -0.2575 -0.7572 -0.6978
17522SOL     OW53759   8.456   1.314   0.891  0.3755  0.0851 -0.2384
17522SOL    HW153760   8.513   1.322   0.968  0.2148 -0.5989 -0.0355
17522SOL    HW253761   8.418   1.226   0.899  0.2419  0.0646 -1.0257
17523SOL     OW53762   3.670   5.934   1.827 -0.1078  0.0539 -0.1291
17523SOL    HW153763   3.710   5.976   1.751 -1.0539  2.1936  0.4978
17523SOL    HW253764   3.586   5.900   1.794 -0.1451  0.2494 -0.2380
17524SOL     OW53765   7.781   8.327   4.503  0.7901 -0.6332 -0.0163
17524SOL    HW153766   7.804   8.279   4.582 -0.0656 -1.5811 -0.3274
17524SOL    HW253767   7.799   8.419   4.525  0.8400 -0.9101  1.1680
17525SOL     OW53768   2.459   3.074   8.233  0.4777 -0.7321  0.0019
17525SOL    HW153769   2.464   3.167   8.210 -0.0908 -0.7437 -0.1756
17525SOL    HW253770   2.401   3.070   8.309 -1.6312 -1.1900 -1.5541
17526SOL     OW53771   5.028   0.840   7.838  0.4197 -0.4208  0.1899
17526SOL    HW153772   4.942   0.881   7.835  0.2273 -0.7632  0.7462
17526SOL    HW253773   5.078   0.882   7.768 -0.4050 -0.6977 -0.5839
17527SOL     OW53774   7.571   3.733   6.031  0.3497  0.3782 -0.4745
17527SOL    HW153775   7.627   3.749   5.955  0.8061 -0.5801 -0.3662
17527SOL    HW253776   7.525   3.815   6.045  0.8515  0.8185 -1.3000
17528SOL     OW53777   1.045   2.597   1.985  0.5428  0.8281  0.4899
17528SOL    HW153778   1.091   2.570   2.064  1.6413  1.7338  0.1917
17528SOL    HW253779   1.028   2.691   1.997  1.0755  1.0739 -0.4891
17529SOL     OW53780   2.018   6.491   5.254  0.1763  0.1799 -0.4214
17529SOL    HW153781   1.953   6.421   5.245  0.1801  0.1805 -0.4536
17529SOL    HW253782   1.986   6.544   5.327  2.0436 -1.9280  2.1193
17530SOL     OW53783   4.612   1.950   6.374 -0.0837  0.6339  0.1275
17530SOL    HW153784   4.516   1.955   6.383 -0.1457 -0.1946 -0.0376
17530SOL    HW253785   4.642   2.038   6.398 -0.9006  0.9630 -0.0078
17531SOL     OW53786   3.814   4.166   0.583  0.7650 -0.0260  0.3437
17531SOL    HW153787   3.833   4.076   0.608  2.9525 -0.3540 -2.1646
17531SOL    HW253788   3.836   4.217   0.661  0.1484 -1.5535  1.5741
17532SOL     OW53789   3.776   4.482   2.561 -0.1235  0.0188  0.1387
17532SOL    HW153790   3.703   4.421   2.567  0.3257 -0.4337  1.5466
17532SOL    HW253791   3.805   4.494   2.652  1.5522  0.1553 -0.3685
17533SOL     OW53792   0.551   7.389   5.952 -0.3119 -0.3427  0.2616
17533SOL    HW153793   0.516   7.455   6.012 -1.5882 -0.9014  0.1648
17533SOL    HW253794   0.474   7.352   5.910  0.3505 -2.0329  0.4484
17534SOL     OW53795   1.586   2.727   2.682 -0.0077 -0.5760 -0.5486
17534SOL    HW153796   1.574   2.773   2.766 -1.2494 -0.4951 -0.7472
17534SOL    HW253797   1.629   2.645   2.705  0.5302 -0.1415  0.0452
17535SOL     OW53798   0.591   0.705   6.722  0.2980 -0.0520  0.4690
17535SOL    HW153799   0.553   0.666   6.801  1.7467 -1.5349  0.4891
17535SOL    HW253800   0.563   0.648   6.651  0.0179  0.5760  0.0638
17536SOL     OW53801   0.855   5.261   4.001 -0.4329 -0.3993  0.0104
17536SOL    HW153802   0.945   5.259   4.034 -1.1744 -1.1170  2.1662
17536SOL    HW253803   0.857   5.324   3.930  1.9069 -0.8673 -0.4123
17537SOL     OW53804   3.357   4.738   1.760 -0.2880 -0.6440 -0.3369
17537SOL    HW153805   3.281   4.684   1.738 -0.0667 -0.8133 -0.7039
17537SOL    HW253806   3.352   4.811   1.699 -0.1726 -0.6395 -0.3407
17538SOL     OW53807   5.401   4.193   5.296  0.3695  0.4613  0.0607
17538SOL    HW153808   5.406   4.288   5.306  0.5148  0.4161  0.4243
17538SOL    HW253809   5.443   4.158   5.375 -1.1255  0.0890  0.7236
17539SOL     OW53810   5.525   4.606   3.804 -0.4567 -0.1088 -0.4056
17539SOL    HW153811   5.597   4.575   3.749 -1.0478  0.2897 -1.4245
17539SOL    HW253812   5.465   4.532   3.809 -0.2104 -0.2808  0.0479
17540SOL     OW53813   1.324   5.089   0.588 -0.2181  0.2992 -0.2485
17540SOL    HW153814   1.277   5.123   0.665 -1.0685  0.1936 -0.7059
17540SOL    HW253815   1.373   5.164   0.556  0.8402  0.1270  0.8893
17541SOL     OW53816   6.971   8.580   2.089 -0.2773 -0.0880 -0.3361
17541SOL    HW153817   6.925   8.664   2.087  0.1697  0.3518  2.8462
17541SOL    HW253818   6.906   8.517   2.059 -0.9566  1.2357 -1.7692
17542SOL     OW53819   5.284   1.581   5.444  0.2601 -0.2030  0.1916
17542SOL    HW153820   5.268   1.641   5.517  0.8843 -1.3868  1.3466
17542SOL    HW253821   5.197   1.559   5.412  0.0221  1.5365 -0.4750
17543SOL     OW53822   4.963   5.076   2.995  0.0907 -0.5424  0.3684
17543SOL    HW153823   4.874   5.112   3.002  0.1065 -0.6772  1.4205
17543SOL    HW253824   5.006   5.130   2.928 -0.9192 -0.7907 -0.5138
17544SOL     OW53825   3.064   2.533   5.887 -0.2761 -0.4525 -0.1739
17544SOL    HW153826   3.127   2.466   5.860  1.2610  1.3793 -1.3819
17544SOL    HW253827   3.091   2.612   5.840 -2.4577  0.8612  0.6177
17545SOL     OW53828   3.436   7.946   6.326 -0.2008  0.3080  0.5423
17545SOL    HW153829   3.494   7.886   6.371  1.5477  0.6022 -1.1883
17545SOL    HW253830   3.381   7.890   6.271 -1.6834  0.0254  2.2316
17546SOL     OW53831   1.327   6.851   4.792 -0.3276 -0.4259  0.2827
17546SOL    HW153832   1.418   6.850   4.763 -0.2281 -0.9328  0.6070
17546SOL    HW253833   1.289   6.771   4.755 -1.3121  0.9446 -1.9415
17547SOL     OW53834   4.758   7.862   7.723 -0.0567  0.1255  0.7098
17547SOL    HW153835   4.800   7.803   7.660 -0.5625  1.3572 -0.8669
17547SOL    HW253836   4.705   7.806   7.779  3.1783 -1.4501  2.4464
17548SOL     OW53837   0.247   0.560   6.297  0.1319  0.5692 -0.0363
17548SOL    HW153838   0.230   0.629   6.361 -0.2783  0.0701  0.4071
17548SOL    HW253839   0.195   0.486   6.328  0.0127  0.2842 -0.8918
17549SOL     OW53840   4.233   2.807   8.100  0.0206 -0.5938  0.0026
17549SOL    HW153841   4.312   2.754   8.088 -0.1791 -0.7964 -0.4591
17549SOL    HW253842   4.204   2.826   8.011  0.4607  0.8605  0.1414
17550SOL     OW53843   8.096   0.468   2.290 -0.0440  0.4494  0.2301
17550SOL    HW153844   8.177   0.418   2.300  0.1514 -0.1670 -3.0593
17550SOL    HW253845   8.036   0.407   2.246 -1.6284  1.4991  0.8511
17551SOL     OW53846   0.036   4.911   2.596 -0.7217  0.2105 -0.1427
17551SOL    HW153847  -0.033   4.919   2.530 -0.9023 -2.2502 -0.3326
17551SOL    HW253848  -0.008   4.880   2.674 -0.4518  2.8138  1.1653
17552SOL     OW53849   2.660   5.763   8.448  0.4145  0.1439 -0.0902
17552SOL    HW153850   2.663   5.768   8.353 -0.9475 -1.9720 -0.3390
17552SOL    HW253851   2.659   5.854   8.478 -0.3760  0.8773 -2.1651
17553SOL     OW53852   5.189   7.656   7.394 -0.1430  0.1541 -0.2045
17553SOL    HW153853   5.109   7.604   7.388  0.7942 -1.6768  1.8620
17553SOL    HW253854   5.176   7.712   7.471  0.0480  0.7977 -0.6348
17554SOL     OW53855   5.110   4.562   1.130 -0.2612  0.2016 -0.1046
17554SOL    HW153856   5.063   4.534   1.209 -0.4777 -0.0576 -0.3268
17554SOL    HW253857   5.050   4.544   1.058  0.1199  0.0083 -0.3759
17555SOL     OW53858   4.510   2.897   2.794  0.5698  0.2285  0.5839
17555SOL    HW153859   4.441   2.899   2.861  0.9199 -0.6041  0.9937
17555SOL    HW253860   4.577   2.839   2.831  0.1746 -1.3658 -1.0314
17556SOL     OW53861   1.161   2.569   2.225  0.0571 -0.5463  0.1279
17556SOL    HW153862   1.099   2.612   2.283  0.3665  0.4830 -0.2881
17556SOL    HW253863   1.166   2.479   2.258 -2.1751 -0.8561 -0.2721
17557SOL     OW53864   6.422   4.652   5.774  0.0241  0.2526 -0.1091
17557SOL    HW153865   6.406   4.608   5.858  1.6777  0.5816  0.3995
17557SOL    HW253866   6.367   4.730   5.778  1.1263  0.9983  1.2929
17558SOL     OW53867   0.731   2.596   7.174 -0.0143  0.6659  0.2440
17558SOL    HW153868   0.801   2.588   7.239 -0.5511  3.1146  1.2313
17558SOL    HW253869   0.714   2.506   7.146  1.0667 -0.3693  2.6183
17559SOL     OW53870   4.562   0.597   0.724 -0.4650 -0.4106  0.3458
17559SOL    HW153871   4.588   0.600   0.632  0.4611 -1.5549  0.5583
17559SOL    HW253872   4.593   0.680   0.760 -0.7040 -0.0182 -0.3217
17560SOL     OW53873   5.972   1.335   5.345  0.6825 -0.1592 -0.0064
17560SOL    HW153874   5.886   1.312   5.310  0.2413  1.2533  0.0908
17560SOL    HW253875   6.031   1.332   5.270  0.3355 -0.0550 -0.2828
17561SOL     OW53876   0.082   1.196   6.651 -0.1326 -0.3642 -0.3430
17561SOL    HW153877   0.081   1.109   6.612  0.2220  0.4808 -2.3607
17561SOL    HW253878   0.011   1.243   6.608 -0.1459  0.4417  0.5156
17562SOL     OW53879   7.745   2.341   5.698 -0.0907  0.8432 -0.0973
17562SOL    HW153880   7.651   2.332   5.689 -0.1836  2.0151 -0.4707
17562SOL    HW253881   7.764   2.430   5.668  1.0416  0.8756  0.6373
17563SOL     OW53882   8.526   2.996   8.430  0.1778 -0.0290 -0.2458
17563SOL    HW153883   8.550   3.031   8.516  0.7144  1.1821 -0.8630
17563SOL    HW253884   8.600   2.938   8.407 -1.0140 -2.2221  1.0658
17564SOL     OW53885   7.818   3.869   7.452  0.1114  0.8346  0.3339
17564SOL    HW153886   7.903   3.828   7.441  0.5158  1.7176  0.0550
17564SOL    HW253887   7.765   3.804   7.499  0.2248 -0.6198 -1.4746
17565SOL     OW53888   7.302   4.143   7.017  0.0046  0.5740 -0.2282
17565SOL    HW153889   7.265   4.063   6.979 -0.2129  1.0772 -1.0937
17565SOL    HW253890   7.240   4.212   6.995  0.2037  0.9952  0.4945
17566SOL     OW53891   0.446   5.988   2.394  0.0557  0.3694  0.3170
17566SOL    HW153892   0.453   5.913   2.335 -0.6968  1.3800 -1.1158
17566SOL    HW253893   0.448   6.065   2.336 -1.9207  1.3762  1.4589
17567SOL     OW53894   3.825   4.634   7.812 -0.1457 -0.3730 -0.3051
17567SOL    HW153895   3.797   4.722   7.786  0.2530 -0.6650 -1.8351
17567SOL    HW253896   3.920   4.636   7.804 -0.1056 -0.8372  0.0228
17568SOL     OW53897   2.282   1.922   8.075  0.1558 -0.4823  0.0662
17568SOL    HW153898   2.280   1.926   7.980 -0.8962  1.6899  0.1175
17568SOL    HW253899   2.363   1.875   8.096  0.0628 -1.5812 -1.8700
17569SOL     OW53900   4.171   7.564   1.325  0.3097 -0.2280  0.6064
17569SOL    HW153901   4.101   7.627   1.341  0.1420 -0.3206  0.2492
17569SOL    HW253902   4.150   7.490   1.383 -1.3009 -1.3369 -1.2555
17570SOL     OW53903   3.737   7.857   2.517  0.2296 -0.4361  0.3769
17570SOL    HW153904   3.672   7.788   2.512  0.8454 -0.9753 -0.6231
17570SOL    HW253905   3.721   7.911   2.439 -1.1144  1.3852  1.8274
17571SOL     OW53906   1.830   0.382   3.831  0.0306 -0.0201 -0.0005
17571SOL    HW153907   1.780   0.425   3.900  0.4902  0.8901 -0.2133
17571SOL    HW253908   1.764   0.335   3.779 -0.4771  0.3453  0.3034
17572SOL     OW53909   8.214   4.549   2.196 -0.4170 -0.0884 -0.0563
17572SOL    HW153910   8.263   4.531   2.116  0.8575 -0.8981  0.8590
17572SOL    HW253911   8.269   4.611   2.244 -0.4172 -0.7633  0.8457
17573SOL     OW53912   7.934   6.082   2.269 -0.1408 -0.1734 -0.0062
17573SOL    HW153913   7.884   6.079   2.350  0.5479  0.8757  0.4736
17573SOL    HW253914   7.887   6.023   2.209  0.7987 -3.1277  1.9370
17574SOL     OW53915   6.936   0.885   1.698 -0.1049 -0.4742 -0.5698
17574SOL    HW153916   6.865   0.933   1.655  0.8420  2.1061  0.4812
17574SOL    HW253917   7.007   0.887   1.634 -0.1255 -0.6163 -0.5958
17575SOL     OW53918   2.944   8.565   3.952  0.7285  0.0909  0.3085
17575SOL    HW153919   3.011   8.504   3.918  0.2726 -0.5997  0.6177
17575SOL    HW253920   2.873   8.559   3.888  0.7880  0.5032  0.2042
17576SOL     OW53921   1.775   8.005   4.074 -0.5443  0.1097 -0.6931
17576SOL    HW153922   1.729   7.948   4.012 -0.7185 -0.4378 -0.0719
17576SOL    HW253923   1.723   8.086   4.075 -1.5581 -0.5138  0.0271
17577SOL     OW53924   2.574   0.307   1.102 -0.5523  0.2653  0.3506
17577SOL    HW153925   2.613   0.288   1.016 -2.5506 -0.3005 -0.5015
17577SOL    HW253926   2.647   0.340   1.154  0.7494  0.5940 -1.5411
17578SOL     OW53927   3.635   8.601   5.235  0.3529  0.0088  0.5961
17578SOL    HW153928   3.605   8.677   5.186 -0.9351  0.2710  1.7244
17578SOL    HW253929   3.573   8.594   5.308  0.7277 -1.8402  0.7793
17579SOL     OW53930   2.355   3.100   0.154 -0.4271 -0.0327 -0.3981
17579SOL    HW153931   2.384   3.110   0.245 -1.3704 -1.3073  0.0740
17579SOL    HW253932   2.319   3.186   0.131 -0.2754  0.2738  0.4620
17580SOL     OW53933   1.596   0.663   4.538 -0.1072 -0.4086  0.5291
17580SOL    HW153934   1.625   0.752   4.559  0.4632 -0.0987 -1.3733
17580SOL    HW253935   1.517   0.651   4.591 -0.5953  1.5179  0.3321
17581SOL     OW53936   4.975   0.426   3.016 -0.1576 -0.1477 -0.4154
17581SOL    HW153937   5.066   0.422   2.988 -0.5400 -3.2202 -1.6667
17581SOL    HW253938   4.947   0.515   2.994  1.9213  0.1768 -2.0873
17582SOL     OW53939   0.366   1.837   1.801  0.3682  0.3822  0.4445
17582SOL    HW153940   0.368   1.930   1.775 -2.0398  0.0909 -1.1290
17582SOL    HW253941   0.427   1.795   1.741 -1.6287  0.4356 -1.7946
17583SOL     OW53942   3.802   3.110   4.601 -0.0559  0.6354  0.1219
17583SOL    HW153943   3.720   3.061   4.607  0.7266 -0.7456  0.0271
17583SOL    HW253944   3.810   3.154   4.686  0.4719 -1.5410  1.2778
17584SOL     OW53945   2.424   8.140   3.707  0.1175 -0.5620 -0.1494
17584SOL    HW153946   2.515   8.112   3.714 -0.0210 -1.2858 -1.0267
17584SOL    HW253947   2.392   8.098   3.627 -0.6356  0.6655 -0.5305
17585SOL     OW53948   4.276   3.160   6.108  0.2094  0.3394  0.1511
17585SOL    HW153949   4.368   3.148   6.132  0.4326 -0.9403 -1.1858
17585SOL    HW253950   4.231   3.177   6.190  1.3006 -1.3093  1.1329
17586SOL     OW53951   0.421   0.834   4.782 -0.1493  0.0643  0.0753
17586SOL    HW153952   0.429   0.751   4.830 -0.3188  0.1972  0.3364
17586SOL    HW253953   0.351   0.880   4.827  0.1908  0.5049  0.1572
17587SOL     OW53954   1.643   4.832   0.243  0.5948 -0.0213 -0.2980
17587SOL    HW153955   1.674   4.856   0.156  0.7604  0.3759 -0.1302
17587SOL    HW253956   1.713   4.860   0.302 -0.2510  1.2837  0.1233
17588SOL     OW53957   1.024   8.214   6.995  0.1426 -0.0553  0.1639
17588SOL    HW153958   1.027   8.244   6.904  1.0507  1.6047  0.7099
17588SOL    HW253959   1.064   8.127   6.992  0.5816  0.1635 -0.9643
17589SOL     OW53960   1.389   2.526   4.370 -0.2353 -0.1250  0.6341
17589SOL    HW153961   1.457   2.460   4.357 -0.0567 -0.3058  2.2539
17589SOL    HW253962   1.306   2.478   4.360 -0.1618  0.0660 -1.1950
17590SOL     OW53963   6.327   2.532   0.898  0.0309  0.3700  0.7158
17590SOL    HW153964   6.330   2.501   0.808 -0.5591  3.8217 -0.6287
17590SOL    HW253965   6.234   2.532   0.921  0.0447  0.9483  0.7715
17591SOL     OW53966   0.763   7.577   5.332 -0.4528  0.3548 -0.4173
17591SOL    HW153967   0.751   7.487   5.303 -1.5806  0.6145 -0.8333
17591SOL    HW253968   0.813   7.619   5.262  2.0262 -0.4551  0.7780
17592SOL     OW53969   6.310   4.921   3.888  0.0010 -0.3041  0.2288
17592SOL    HW153970   6.376   4.915   3.956  0.5269 -0.6158 -0.2977
17592SOL    HW253971   6.306   5.014   3.867  2.4698 -0.5431 -1.8066
17593SOL     OW53972   1.207   6.840   7.712 -0.2193  0.0978 -0.0538
17593SOL    HW153973   1.226   6.768   7.773  0.1549 -1.4500 -1.8870
17593SOL    HW253974   1.139   6.805   7.655  1.7177  0.1742 -2.5891
17594SOL     OW53975   1.595   4.535   0.609  0.1491  0.4678 -0.1866
17594SOL    HW153976   1.549   4.482   0.674 -1.0272  2.6902  0.8882
17594SOL    HW253977   1.635   4.471   0.550 -0.1956 -1.5983  1.6994
17595SOL     OW53978   2.402   3.729   7.652  0.4035  0.2204  0.7890
17595SOL    HW153979   2.465   3.764   7.715 -0.5848 -0.1004  2.0138
17595SOL    HW253980   2.372   3.647   7.692  1.9263 -1.5666 -1.5393
17596SOL     OW53981   2.806   5.208   3.911  0.2140  0.2285  0.0380
17596SOL    HW153982   2.883   5.262   3.930  0.2622  0.1719  0.0057
17596SOL    HW253983   2.809   5.195   3.816 -0.3386  0.9722 -0.0893
17597SOL     OW53984   1.305   4.014   3.866  0.2774 -0.4185 -0.2533
17597SOL    HW153985   1.341   4.000   3.778  1.6244 -1.2545  0.3985
17597SOL    HW253986   1.264   3.931   3.888 -0.2269 -0.1455 -0.1663
17598SOL     OW53987   5.866   7.800   2.311 -0.6108 -0.2444 -0.4175
17598SOL    HW153988   5.785   7.798   2.260  0.2120 -0.0198 -1.8121
17598SOL    HW253989   5.893   7.708   2.317 -0.5028 -0.2393 -0.7724
17599SOL     OW53990   2.231   7.134   5.982  0.6464  0.0196  0.7037
17599SOL    HW153991   2.154   7.178   6.017 -0.4450 -0.6055 -0.7775
17599SOL    HW253992   2.285   7.204   5.945 -0.5169  0.2666 -0.6111
17600SOL     OW53993   7.540   1.400   1.345 -0.5390 -0.2177 -0.3730
17600SOL    HW153994   7.546   1.491   1.318  1.5199 -0.4829 -0.9930
17600SOL    HW253995   7.455   1.393   1.388 -1.5543  1.5444 -1.9309
17601SOL     OW53996   6.974   2.996   3.892  0.2140  0.3904  0.1534
17601SOL    HW153997   6.964   2.903   3.873 -0.2790  0.7401 -1.4590
17601SOL    HW253998   7.000   2.999   3.984 -0.0508 -1.3180  0.3185
17602SOL     OW53999   8.251   0.979   7.916  0.6947  0.1305  0.4050
17602SOL    HW154000   8.335   0.951   7.952  0.2484  0.4490  1.7245
17602SOL    HW254001   8.191   0.980   7.990 -0.2355  0.8955 -0.3234
17603SOL     OW54002   4.551   1.775   4.983  0.3068  0.2890  0.4098
17603SOL    HW154003   4.545   1.869   4.965 -1.2107  0.1769  0.2196
17603SOL    HW254004   4.630   1.747   4.937  0.0521  1.2320 -0.6610
17604SOL     OW54005   7.942   1.397   8.085 -0.0869  0.1864 -0.0834
17604SOL    HW154006   7.865   1.451   8.102 -0.8317 -0.9276  0.2160
17604SOL    HW254007   8.000   1.412   8.159  0.3305  1.5942 -0.6690
17605SOL     OW54008   7.945   4.561   3.135 -0.1270 -0.3005 -0.2118
17605SOL    HW154009   7.912   4.577   3.224  0.0413 -0.7018 -0.0738
17605SOL    HW254010   8.026   4.612   3.130 -0.5601  0.3869 -0.4238
17606SOL     OW54011   6.369   0.897   8.519  0.1708  0.0693  0.4731
17606SOL    HW154012   6.335   0.914   8.432  1.4387  1.7474  0.2658
17606SOL    HW254013   6.291   0.895   8.576 -0.6875 -1.3088 -0.6899
17607SOL     OW54014   1.604   0.048   7.995  0.6638 -0.3981  0.4432
17607SOL    HW154015   1.557   0.093   7.925  2.7230  0.6514 -0.3566
17607SOL    HW254016   1.628   0.117   8.057  0.6753 -0.9845  1.1067
17608SOL     OW54017   0.438   2.009   3.756  0.5461 -0.4598  0.0162
17608SOL    HW154018   0.343   2.017   3.755  0.5607  0.0213 -1.7101
17608SOL    HW254019   0.455   1.919   3.730  0.5522 -0.1442 -1.1269
17609SOL     OW54020   7.404   0.983   4.838  0.5541  0.0364  0.3318
17609SOL    HW154021   7.369   1.051   4.779  0.6603 -0.1618  0.0378
17609SOL    HW254022   7.410   0.905   4.783 -0.9954 -0.6289  1.0423
17610SOL     OW54023   8.515   5.846   4.360 -0.1471  0.0589 -0.8556
17610SOL    HW154024   8.558   5.873   4.441  0.8714  0.2497 -1.4471
17610SOL    HW254025   8.540   5.754   4.349  1.7151  0.6785 -2.1773
17611SOL     OW54026   2.877   7.778   8.306 -0.3540 -0.1333 -0.6797
17611SOL    HW154027   2.826   7.851   8.343 -0.1993 -0.1029 -0.5256
17611SOL    HW254028   2.811   7.710   8.288 -0.1778 -1.2415  2.2036
17612SOL     OW54029   4.597   3.451   6.333 -0.1893 -0.2313 -0.5133
17612SOL    HW154030   4.659   3.511   6.376 -0.5162 -0.6124  0.5279
17612SOL    HW254031   4.524   3.507   6.307 -1.1747 -0.3367  1.7777
17613SOL     OW54032   0.822   6.778   6.490  0.2518  0.3128  0.0738
17613SOL    HW154033   0.870   6.702   6.458  1.9939  1.2299  0.3527
17613SOL    HW254034   0.828   6.842   6.419  2.0686  1.4939  1.2064
17614SOL     OW54035   7.841   0.473   2.080 -0.0975  0.6729  0.0515
17614SOL    HW154036   7.884   0.399   2.124  1.4808  2.2981  1.3809
17614SOL    HW254037   7.747   0.450   2.082  0.3325 -1.2677  0.3940
17615SOL     OW54038   4.372   7.231   1.784  0.2041 -0.0266 -0.7067
17615SOL    HW154039   4.348   7.139   1.784  0.5587 -0.1191 -0.4531
17615SOL    HW254040   4.466   7.232   1.770  0.2916  0.2683 -0.1286
17616SOL     OW54041   2.851   4.562   1.753  0.3064 -0.0869 -0.0495
17616SOL    HW154042   2.834   4.495   1.819  2.7291 -0.6143  0.1257
17616SOL    HW254043   2.767   4.607   1.742 -0.9633 -2.0507  1.0366
17617SOL     OW54044   0.684   8.086   3.646  0.0632  0.1707  0.8919
17617SOL    HW154045   0.612   8.095   3.709 -0.7236 -0.1337  0.0546
17617SOL    HW254046   0.713   7.995   3.657 -1.9380 -0.8068 -1.0786
17618SOL     OW54047   3.829   0.557   2.337  0.5331 -0.2500 -0.3696
17618SOL    HW154048   3.827   0.572   2.431  1.1668 -1.0027 -0.2241
17618SOL    HW254049   3.922   0.546   2.317  0.4433  0.3349 -1.1559
17619SOL     OW54050   0.032   8.238   0.310  0.4605  0.7504  0.4442
17619SOL    HW154051  -0.041   8.266   0.366 -2.1603 -0.9439 -1.8670
17619SOL    HW254052   0.044   8.145   0.331  0.2013  0.3775 -0.9716
17620SOL     OW54053   4.377   4.754   2.987 -0.1085  0.2891 -0.4338
17620SOL    HW154054   4.396   4.848   2.983 -1.0069  0.4954 -0.1767
17620SOL    HW254055   4.313   4.739   2.917  0.4148 -0.2333 -0.8057
17621SOL     OW54056   5.095   0.291   3.919  0.4207 -0.5701  0.1907
17621SOL    HW154057   5.006   0.313   3.891 -0.2804 -0.2282  2.4479
17621SOL    HW254058   5.148   0.300   3.840 -1.2605  0.9413 -0.8528
17622SOL     OW54059   1.190   3.443   4.621  0.2051  0.2026 -0.0584
17622SOL    HW154060   1.275   3.456   4.579  0.5836 -2.7045 -0.4146
17622SOL    HW254061   1.127   3.479   4.559  0.9913 -0.9725 -1.6168
17623SOL     OW54062   2.215   3.870   6.917  0.4028 -0.1688 -0.4166
17623SOL    HW154063   2.182   3.956   6.942 -0.1389 -0.1138 -1.2903
17623SOL    HW254064   2.274   3.887   6.844 -2.6555 -0.7996 -3.2871
17624SOL     OW54065   0.463   6.532   6.536  0.0739 -0.5014  0.7542
17624SOL    HW154066   0.390   6.503   6.591  0.3086  0.1997  1.4479
17624SOL    HW254067   0.429   6.526   6.447 -0.9682  0.1892  1.0855
17625SOL     OW54068   1.193   7.503   0.340 -0.4179  0.3616  0.4018
17625SOL    HW154069   1.249   7.486   0.416 -0.2566 -1.7610 -0.1322
17625SOL    HW254070   1.178   7.416   0.302 -1.0464  1.3056 -1.6054
17626SOL     OW54071   1.606   7.676   4.909 -0.5130 -0.3203 -0.1458
17626SOL    HW154072   1.591   7.587   4.941  1.3307 -0.0961  1.5701
17626SOL    HW254073   1.583   7.732   4.983  1.2018  0.4131 -0.1102
17627SOL     OW54074   0.388   8.063   4.928 -0.4083 -0.3192 -0.2286
17627SOL    HW154075   0.403   8.157   4.935 -0.6159 -0.3042  0.0557
17627SOL    HW254076   0.474   8.025   4.909 -0.0818 -0.1903  0.9091
17628SOL     OW54077   1.388   0.444   1.206  0.3107  0.5271  0.5135
17628SOL    HW154078   1.350   0.463   1.292  1.4247  1.4433  0.8323
17628SOL    HW254079   1.340   0.500   1.145  1.2875  1.9043  0.9562
17629SOL     OW54080   3.352   5.052   5.581  0.1186  0.2990 -0.5479
17629SOL    HW154081   3.288   5.112   5.619 -0.0452 -0.2535  0.0777
17629SOL    HW254082   3.303   4.998   5.520 -0.5640 -1.6554  1.5691
17630SOL     OW54083   0.293   1.917   7.276 -0.4816 -0.4339  0.1195
17630SOL    HW154084   0.358   1.919   7.346 -0.6346 -0.2573  0.2577
17630SOL    HW254085   0.325   1.850   7.216 -0.7065 -1.0911  0.7146
17631SOL     OW54086   1.443   2.019   3.283 -0.1959  0.1409  0.0530
17631SOL    HW154087   1.356   1.980   3.290  0.2779 -0.6917  1.5834
17631SOL    HW254088   1.503   1.948   3.301  0.7064  1.4149  2.5730
17632SOL     OW54089   5.243   3.603   5.077 -0.0053 -0.0009 -0.1636
17632SOL    HW154090   5.166   3.551   5.057  0.0910 -0.5222  0.7840
17632SOL    HW254091   5.317   3.542   5.068  0.4409  0.7385 -2.1014
17633SOL     OW54092   4.178   0.102   5.404 -0.2673  0.6005 -0.0521
17633SOL    HW154093   4.171   0.065   5.316  0.1136 -0.1335  0.2180
17633SOL    HW254094   4.094   0.082   5.445  0.1551 -0.5316  0.2965
17634SOL     OW54095   5.122   3.899   4.546 -0.7920 -0.1314  0.2475
17634SOL    HW154096   5.120   3.821   4.491 -0.8244  0.7515 -1.0598
17634SOL    HW254097   5.157   3.869   4.630 -0.0969 -1.4001 -0.4659
17635SOL     OW54098   7.565   6.380   5.744 -0.0179 -0.3698  0.2385
17635SOL    HW154099   7.475   6.404   5.765  0.1718  0.9532 -0.3278
17635SOL    HW254100   7.611   6.383   5.828  0.2488  2.6297  0.1179
17636SOL     OW54101   7.966   2.464   6.620  0.2877  0.1934 -0.4418
17636SOL    HW154102   7.904   2.464   6.547 -1.8396  0.3174  1.2559
17636SOL    HW254103   7.945   2.543   6.670 -0.0511 -1.1067  1.6375
17637SOL     OW54104   1.788   5.310   3.682 -0.6405 -0.0409 -0.5992
17637SOL    HW154105   1.821   5.263   3.605  2.8723  0.7560  0.2233
17637SOL    HW254106   1.770   5.241   3.746  0.7080 -0.5254 -0.7078
17638SOL     OW54107   7.829   8.579   6.485 -0.0696  0.0304 -0.3450
17638SOL    HW154108   7.904   8.536   6.524 -1.6091 -2.9168 -0.3682
17638SOL    HW254109   7.828   8.666   6.525  2.6357 -0.2314  0.4981
17639SOL     OW54110   3.785   7.260   1.759  0.2244  0.0461  0.1132
17639SOL    HW154111   3.873   7.267   1.797  0.4138 -2.3511  0.2501
17639SOL    HW254112   3.729   7.305   1.822  1.3909  2.1837 -0.2937
17640SOL     OW54113   1.767   6.882   6.848 -0.3739 -0.3576  0.5974
17640SOL    HW154114   1.853   6.889   6.889 -0.8701  1.3867  1.4557
17640SOL    HW254115   1.709   6.853   6.918 -0.8668  0.6713  0.6338
17641SOL     OW54116   0.266   3.398   6.710  0.1688  0.1213 -0.4212
17641SOL    HW154117   0.302   3.323   6.663 -0.1456  0.9613 -2.0811
17641SOL    HW254118   0.215   3.446   6.644 -3.1679 -0.4297  1.5018
17642SOL     OW54119   1.262   1.727   4.959  0.3663 -0.0867 -0.8066
17642SOL    HW154120   1.309   1.776   4.892  2.0396 -1.5427 -0.7770
17642SOL    HW254121   1.219   1.657   4.911  1.1243 -0.8117 -0.4477
17643SOL     OW54122   3.349   0.646   5.628 -0.0855 -0.2836 -0.2078
17643SOL    HW154123   3.333   0.595   5.549 -1.6622  1.0740 -0.8439
17643SOL    HW254124   3.261   0.668   5.661  0.5389  0.0292  1.3485
17644SOL     OW54125   1.184   6.385   2.397 -0.2697 -0.2377 -0.3693
17644SOL    HW154126   1.243   6.447   2.440 -0.2814  0.0455 -0.7569
17644SOL    HW254127   1.241   6.316   2.363 -0.4322 -1.7134  2.0886
17645SOL     OW54128   6.334   3.913   7.698  0.2525  0.0995  0.5457
17645SOL    HW154129   6.261   3.965   7.733  1.2266  1.0842  1.1712
17645SOL    HW254130   6.399   3.913   7.768 -0.3969 -3.5154  1.3132
17646SOL     OW54131   2.803   6.512   6.750  0.0978  0.2323 -0.5226
17646SOL    HW154132   2.804   6.505   6.845  0.5610 -0.6148 -0.5771
17646SOL    HW254133   2.873   6.574   6.730 -1.0192  1.6110 -0.2439
17647SOL     OW54134   4.724   1.509   4.739  0.2739 -0.0713 -0.2469
17647SOL    HW154135   4.640   1.543   4.709  0.2840 -0.5847 -0.8874
17647SOL    HW254136   4.773   1.586   4.767  0.5414  0.5423 -2.2462
17648SOL     OW54137   7.810   3.502   7.552 -0.1858  0.3896 -0.2602
17648SOL    HW154138   7.821   3.578   7.608  1.0551  1.5267 -1.9519
17648SOL    HW254139   7.865   3.434   7.592  0.9233  1.2722 -0.2525
17649SOL     OW54140   5.107   3.350   0.244 -0.5815  0.1393  0.0135
17649SOL    HW154141   5.046   3.337   0.317 -1.8569  2.0271 -0.6555
17649SOL    HW254142   5.059   3.403   0.181  0.0214 -2.4018 -2.8475
17650SOL     OW54143   0.032   3.299   5.545  0.3131  0.5458  0.4531
17650SOL    HW154144   0.106   3.242   5.568  1.6671  2.4048  0.9940
17650SOL    HW254145  -0.017   3.309   5.626  0.0829  0.1774  0.3614
17651SOL     OW54146   0.255   3.801   0.422  0.5116 -0.5968  0.0114
17651SOL    HW154147   0.168   3.771   0.395  0.0420  1.5517 -1.0734
17651SOL    HW254148   0.256   3.788   0.517 -1.5458  0.4900  0.2555
17652SOL     OW54149   5.439   0.827   0.752  0.3911 -0.6050  0.4732
17652SOL    HW154150   5.402   0.739   0.744 -1.8746  0.0888  2.0768
17652SOL    HW254151   5.468   0.834   0.843  1.0940  0.1232  0.2120
17653SOL     OW54152   8.375   5.857   7.166  0.4849 -0.1836  0.3179
17653SOL    HW154153   8.396   5.766   7.148  0.3946 -0.1872  0.2286
17653SOL    HW254154   8.289   5.854   7.209  0.9427 -0.2187  1.2598
17654SOL     OW54155   7.655   1.647   2.392 -0.9576 -0.2870 -0.0414
17654SOL    HW154156   7.612   1.657   2.477 -1.2774  0.0024 -0.2354
17654SOL    HW254157   7.587   1.610   2.335 -1.0198  0.3691 -0.4045
17655SOL     OW54158   1.127   1.815   4.218 -0.3565 -0.1844  0.2555
17655SOL    HW154159   1.058   1.754   4.191  0.0002  0.0655 -1.3512
17655SOL    HW254160   1.153   1.859   4.137  2.0499 -0.6406  0.6935
17656SOL     OW54161   6.166   8.011   3.835 -0.5463 -0.1092  0.2026
17656SOL    HW154162   6.198   8.100   3.819  1.4573 -0.6461  0.9538
17656SOL    HW254163   6.202   7.988   3.921 -1.7301 -1.3584  0.3952
17657SOL     OW54164   1.866   1.586   2.306  0.5841  0.3996 -0.0162
17657SOL    HW154165   1.895   1.674   2.284 -1.8369  1.2787  0.0535
17657SOL    HW254166   1.772   1.594   2.323  0.2860 -2.1760  0.0744
17658SOL     OW54167   5.947   6.950   1.843  0.1571 -0.0504 -0.6017
17658SOL    HW154168   5.910   6.960   1.755 -0.7264 -0.8391 -0.3418
17658SOL    HW254169   5.872   6.924   1.898  0.3799  1.8414  0.7051
17659SOL     OW54170   3.053   7.092   4.328 -0.6628  0.0189 -0.1424
17659SOL    HW154171   3.133   7.118   4.282 -0.5455 -0.9162 -0.5125
17659SOL    HW254172   3.061   7.130   4.415 -1.8557  3.6415 -1.4223
17660SOL     OW54173   0.804   5.298   2.449  0.0361 -0.1020 -0.6987
17660SOL    HW154174   0.742   5.353   2.401 -1.6184  0.1294  1.5359
17660SOL    HW254175   0.877   5.357   2.470 -0.4066  0.4628 -0.7384
17661SOL     OW54176   5.342   7.076   8.166 -0.8724 -0.2189 -1.0085
17661SOL    HW154177   5.368   7.138   8.234 -1.4053 -0.6897 -0.3568
17661SOL    HW254178   5.412   7.081   8.101 -0.2767  0.1457 -0.3588
17662SOL     OW54179   3.871   2.621   6.528  0.3529 -0.1677  0.7946
17662SOL    HW154180   3.939   2.573   6.481  0.4082  0.8986 -0.2931
17662SOL    HW254181   3.796   2.562   6.529  0.0291  0.1154 -1.5665
17663SOL     OW54182   1.719   3.536   2.806  0.0614  0.2563 -0.0082
17663SOL    HW154183   1.657   3.493   2.747  0.4033  0.2049 -0.3283
17663SOL    HW254184   1.747   3.615   2.759  1.2004 -0.3651 -0.4084
17664SOL     OW54185   7.419   5.550   5.464 -0.0129 -0.0194  0.0738
17664SOL    HW154186   7.399   5.569   5.373 -1.1847  0.9439  0.5183
17664SOL    HW254187   7.375   5.619   5.514  1.8840  0.3894  1.2876
17665SOL     OW54188   6.437   8.272   5.386 -0.0286  0.4528  0.3011
17665SOL    HW154189   6.420   8.320   5.467  2.0157 -2.2090  2.4807
17665SOL    HW254190   6.373   8.201   5.385  0.2375  0.2093 -0.2269
17666SOL     OW54191   6.068   4.170   2.375  0.0269  0.4314 -0.2067
17666SOL    HW154192   6.151   4.123   2.369  1.0855  2.1757  0.1340
17666SOL    HW254193   6.042   4.163   2.467  0.2576  0.6246 -0.1263
17667SOL     OW54194   1.876   3.769   4.469 -0.3791  0.2088  0.2649
17667SOL    HW154195   1.953   3.711   4.463 -0.3567  0.3828 -1.7627
17667SOL    HW254196   1.907   3.845   4.519  0.9049  0.4332 -0.8167
17668SOL     OW54197   7.685   7.939   6.085  0.5858  0.1333  0.1415
17668SOL    HW154198   7.662   8.015   6.033  1.4918  0.8864  0.8119
17668SOL    HW254199   7.626   7.941   6.160 -0.2826 -0.5880 -0.5027
17669SOL     OW54200   1.769   3.159   3.604  0.2071 -0.0255  0.6849
17669SOL    HW154201   1.854   3.188   3.638 -0.0474  1.7831 -0.1147
17669SOL    HW254202   1.791   3.103   3.530  0.7718  2.4006 -1.0974
17670SOL     OW54203   7.998   5.955   6.149 -0.1897 -0.1186  0.2292
17670SOL    HW154204   8.056   5.983   6.077  0.1986  0.6250  0.8107
17670SOL    HW254205   7.988   5.861   6.136  1.0189 -0.2401  0.0052
17671SOL     OW54206   3.168   5.327   3.510  0.2954  0.3312  0.9034
17671SOL    HW154207   3.215   5.361   3.586  0.8036  1.1195  0.2582
17671SOL    HW254208   3.128   5.405   3.470  0.4902  0.0171  0.0670
17672SOL     OW54209   7.099   1.047   3.862  0.3782 -0.3282  0.9007
17672SOL    HW154210   7.190   1.026   3.844 -0.1799 -0.2251 -2.7829
17672SOL    HW254211   7.099   1.142   3.878  0.8570 -0.2219  0.3062
17673SOL     OW54212   5.089   1.343   7.808 -0.0117  0.3828 -0.3984
17673SOL    HW154213   5.090   1.280   7.735  0.4588  0.2224 -0.2601
17673SOL    HW254214   5.169   1.324   7.857 -0.4775  0.2717  0.3492
17674SOL     OW54215   8.417   3.281   1.718  0.0754  0.0094 -0.1712
17674SOL    HW154216   8.377   3.257   1.634 -0.3410  0.3047 -0.0648
17674SOL    HW254217   8.498   3.326   1.694 -0.8374  1.5837 -0.4984
17675SOL     OW54218   8.269   4.477   1.875 -0.1349  0.0676  0.0008
17675SOL    HW154219   8.250   4.404   1.934 -0.9471  0.6296  0.4695
17675SOL    HW254220   8.182   4.511   1.851  0.2246  0.7934 -0.3063
17676SOL     OW54221   0.958   7.189   4.591  0.4833 -0.5247 -1.0405
17676SOL    HW154222   0.952   7.114   4.532 -2.9953 -2.1086  0.9965
17676SOL    HW254223   0.974   7.151   4.677 -0.7230  1.0502 -0.0592
17677SOL     OW54224   3.523   1.381   8.032 -0.3720 -0.0142 -0.0267
17677SOL    HW154225   3.548   1.342   7.949 -1.4012 -0.2465 -0.2412
17677SOL    HW254226   3.594   1.358   8.092 -0.2338 -0.9218 -0.5261
17678SOL     OW54227   8.043   2.602   7.266 -0.2491 -0.2174 -0.0322
17678SOL    HW154228   8.000   2.607   7.181 -0.2880 -2.9185 -0.2584
17678SOL    HW254229   7.972   2.592   7.329 -0.1637  0.4382  0.1706
17679SOL     OW54230   1.526   4.089   5.580  0.0608 -0.3707  0.7636
17679SOL    HW154231   1.491   4.156   5.639  1.5017  0.7074  0.4595
17679SOL    HW254232   1.619   4.082   5.605  0.9739  0.8428 -1.9988
17680SOL     OW54233   0.176   7.654   7.586 -0.0117 -0.2987 -0.2864
17680SOL    HW154234   0.186   7.599   7.664  0.9364  0.5787  0.2298
17680SOL    HW254235   0.093   7.625   7.547 -0.5515 -0.6817  1.0885
17681SOL     OW54236   1.536   0.100   1.648 -0.3289  0.8817  0.1376
17681SOL    HW154237   1.448   0.064   1.664  0.0045 -1.2514 -2.2468
17681SOL    HW254238   1.578   0.098   1.734 -1.4572 -1.4484  0.7148
17682SOL     OW54239   1.930   7.097   2.499  0.1952  0.5438 -1.5318
17682SOL    HW154240   1.903   7.133   2.415 -3.0346 -0.7328 -1.1865
17682SOL    HW254241   1.909   7.003   2.493 -0.7364  0.5287  0.8380
17683SOL     OW54242   0.789   2.598   1.822 -0.0437 -0.4585 -0.6463
17683SOL    HW154243   0.760   2.681   1.860  0.2651 -0.5214 -0.2648
17683SOL    HW254244   0.746   2.594   1.737 -0.9720 -0.4401 -0.1985
17684SOL     OW54245   8.086   5.653   0.976 -0.2180  0.2600 -0.4567
17684SOL    HW154246   8.133   5.678   0.896  2.0649 -2.4423 -0.1331
17684SOL    HW254247   8.121   5.711   1.043  0.6506  0.0976 -0.7562
17685SOL     OW54248   7.923   5.405   7.197  0.1732  0.0432 -0.2340
17685SOL    HW154249   7.846   5.381   7.146  0.0104  0.8793 -0.3928
17685SOL    HW254250   7.938   5.329   7.254 -1.5145  0.3405  0.6770
17686SOL     OW54251   1.191   0.499   5.089  0.2754  0.2537  0.1715
17686SOL    HW154252   1.279   0.523   5.061  0.5879 -0.7659  0.2098
17686SOL    HW254253   1.200   0.484   5.183  0.4065 -1.1946 -0.0424
17687SOL     OW54254   6.789   4.724   6.076 -0.1156 -0.6272  0.8332
17687SOL    HW154255   6.829   4.797   6.122  1.4865 -0.9566  0.0217
17687SOL    HW254256   6.821   4.732   5.986 -0.3004 -2.0501  0.6229
17688SOL     OW54257   0.695   2.925   2.524  1.1010  0.0490 -0.3700
17688SOL    HW154258   0.772   2.920   2.581  1.3827  0.9459 -0.6585
17688SOL    HW254259   0.647   3.001   2.555 -0.3469 -1.1977  0.6054
17689SOL     OW54260   2.714   1.246   7.920  0.0089  0.6455  0.4349
17689SOL    HW154261   2.696   1.273   7.830 -0.3296 -0.2064  0.2341
17689SOL    HW254262   2.677   1.315   7.974 -0.7128  0.6561 -0.0627
17690SOL     OW54263   1.385   0.651   0.683  0.0300 -0.2061 -0.0810
17690SOL    HW154264   1.330   0.671   0.759  1.0660  0.4026  0.5298
17690SOL    HW254265   1.333   0.588   0.632 -0.8758 -0.2781  0.8932
17691SOL     OW54266   2.498   5.630   4.617  0.4208  0.3070 -0.1618
17691SOL    HW154267   2.502   5.711   4.668 -2.5391  1.3490 -1.3460
17691SOL    HW254268   2.537   5.652   4.532  0.9484  0.0237  0.0012
17692SOL     OW54269   1.917   0.776   6.901  0.3019 -0.0049 -0.0674
17692SOL    HW154270   1.937   0.850   6.959  0.0997  0.4621 -0.5887
17692SOL    HW254271   1.854   0.811   6.838  0.5313 -0.5051 -0.5840
17693SOL     OW54272   1.021   6.804   3.136 -0.0044  0.2355 -0.2702
17693SOL    HW154273   0.993   6.851   3.214 -0.5591 -0.3823 -0.0884
17693SOL    HW254274   0.980   6.850   3.064  0.5385  0.8290 -0.2104
17694SOL     OW54275   4.310   6.805   5.169  0.0989 -0.0429  0.0038
17694SOL    HW154276   4.325   6.714   5.146  1.9959  0.4783 -1.0887
17694SOL    HW254277   4.393   6.834   5.208  0.5219  1.8502 -2.0637
17695SOL     OW54278   7.794   0.573   2.690 -0.6029  0.2406 -0.1859
17695SOL    HW154279   7.705   0.604   2.674 -0.5580  0.8726  0.7231
17695SOL    HW254280   7.829   0.556   2.603 -1.7997 -0.5797 -0.5320
17696SOL     OW54281   0.139   1.845   0.860  0.0340 -0.5373 -0.1770
17696SOL    HW154282   0.122   1.843   0.766  0.0271 -2.1969 -0.1641
17696SOL    HW254283   0.219   1.897   0.869  0.0314 -0.3584 -1.0937
17697SOL     OW54284   4.110   2.402   8.474  0.7251 -0.4308 -0.0314
17697SOL    HW154285   4.106   2.332   8.540  1.5322 -0.3225  0.1484
17697SOL    HW254286   4.187   2.379   8.421  1.1947  0.4918  0.2299
17698SOL     OW54287   2.782   6.751   3.154 -0.0798 -0.4055  0.1081
17698SOL    HW154288   2.858   6.740   3.096  0.2038 -2.6702  0.7927
17698SOL    HW254289   2.709   6.714   3.104 -0.8842  2.0283 -0.6674
17699SOL     OW54290   0.446   1.361   5.892 -0.0754  0.0830 -0.5165
17699SOL    HW154291   0.477   1.343   5.981 -1.7002 -1.4680 -0.2002
17699SOL    HW254292   0.352   1.374   5.902 -0.4799 -1.2646 -2.1220
17700SOL     OW54293   3.245   1.996   4.272 -0.6640  0.2304 -0.4822
17700SOL    HW154294   3.152   2.018   4.271 -0.4978  0.9505 -1.0885
17700SOL    HW254295   3.282   2.048   4.344 -0.4057  1.4247 -1.4427
17701SOL     OW54296   4.235   1.462   7.852 -0.2663  0.1054 -0.4321
17701SOL    HW154297   4.212   1.370   7.843  0.6166  0.0653 -4.1564
17701SOL    HW254298   4.330   1.464   7.839  0.0748  1.3905  1.8584
17702SOL     OW54299   2.710   7.635   3.710  0.3894  0.1584 -0.1187
17702SOL    HW154300   2.624   7.606   3.681 -0.7815 -0.4859  3.4939
17702SOL    HW254301   2.692   7.703   3.775  2.7550  1.4997 -0.7143
17703SOL     OW54302   7.184   4.802   4.746  0.0239  0.0779 -0.2960
17703SOL    HW154303   7.241   4.878   4.732  0.4066  0.0519  0.9920
17703SOL    HW254304   7.096   4.838   4.744  0.1586  0.4070 -0.5789
17704SOL     OW54305   2.067   1.062   5.845  0.0174  0.2025  0.7323
17704SOL    HW154306   2.043   0.993   5.906  0.4006  0.8818  1.6788
17704SOL    HW254307   2.134   1.024   5.789  1.2957  0.2382  2.1892
17705SOL     OW54308   3.685   0.781   5.574 -0.3581  0.2957  0.0608
17705SOL    HW154309   3.688   0.809   5.482 -1.4644  1.7274  0.4273
17705SOL    HW254310   3.597   0.743   5.583 -0.3059  0.3002  0.5720
17706SOL     OW54311   1.703   0.952   6.798  1.1920  0.2459 -0.0813
17706SOL    HW154312   1.650   0.915   6.868  0.2061  0.0885 -0.8738
17706SOL    HW254313   1.663   1.037   6.781 -1.0612 -1.1857 -2.9275
17707SOL     OW54314   2.570   1.194   5.560  0.3262  0.4118 -0.3277
17707SOL    HW154315   2.550   1.115   5.610  1.3435  0.1261 -0.3444
17707SOL    HW254316   2.666   1.201   5.563  0.6973 -0.8124 -4.0024
17708SOL     OW54317   4.375   7.796   7.004  0.2861 -0.0371 -0.1699
17708SOL    HW154318   4.292   7.780   7.049  0.2792 -0.9776 -0.4906
17708SOL    HW254319   4.418   7.863   7.056 -0.8717  0.7982 -0.2614
17709SOL     OW54320   3.761   0.547   5.201 -0.0250 -0.0085  0.0904
17709SOL    HW154321   3.713   0.489   5.142 -1.5646 -0.2344  1.4889
17709SOL    HW254322   3.805   0.608   5.142  0.6351 -1.7909 -1.3795
17710SOL     OW54323   6.049   0.252   4.868  0.6531  0.1049 -0.4091
17710SOL    HW154324   5.994   0.316   4.913  2.7433  1.7356  0.0076
17710SOL    HW254325   6.044   0.276   4.775 -0.8272 -1.0010 -0.6488
17711SOL     OW54326   1.307   0.574   4.010 -0.0114 -0.1928 -0.0162
17711SOL    HW154327   1.362   0.600   4.084  0.9737 -0.2299 -0.7127
17711SOL    HW254328   1.347   0.493   3.977  0.1009  0.2892 -1.1170
17712SOL     OW54329   7.787   3.603   0.025  0.2812  0.0050 -0.1954
17712SOL    HW154330   7.700   3.597  -0.013  0.0318  0.5556  0.2857
17712SOL    HW254331   7.826   3.517   0.008 -0.0051  0.0621 -1.2314
17713SOL     OW54332   2.855   1.245   5.539  0.0104  0.1151  0.2942
17713SOL    HW154333   2.919   1.190   5.493  0.1444 -0.5339  1.2210
17713SOL    HW254334   2.867   1.222   5.632 -0.6764  0.9365  0.5925
17714SOL     OW54335   0.151   8.449   7.485  0.0771  0.8254  0.2675
17714SOL    HW154336   0.158   8.526   7.542 -0.8497 -0.1802  1.8188
17714SOL    HW254337   0.110   8.382   7.541 -0.4488 -0.3485 -1.4618
17715SOL     OW54338   8.351   2.844   4.933 -0.0511 -0.2213  0.0370
17715SOL    HW154339   8.378   2.812   4.847  1.1500 -0.8427  0.6183
17715SOL    HW254340   8.408   2.919   4.949 -1.3411  0.8774 -0.3603
17716SOL     OW54341   0.026   0.462   1.278  0.4189 -0.1582  0.0439
17716SOL    HW154342   0.059   0.517   1.349 -0.2617 -0.2911  0.4714
17716SOL    HW254343   0.089   0.389   1.274  0.4572 -0.1592  0.5268
17717SOL     OW54344   6.877   4.039   0.881 -0.3568  0.0672 -0.0146
17717SOL    HW154345   6.855   4.123   0.920  1.1345  0.6493 -0.3852
17717SOL    HW254346   6.947   4.004   0.936 -1.0116 -0.9724  0.1800
17718SOL     OW54347   7.913   3.410   3.795 -1.0162 -0.0226 -0.9537
17718SOL    HW154348   7.833   3.446   3.833  0.5171  2.7315 -0.0979
17718SOL    HW254349   7.984   3.458   3.837  1.1453 -2.1842 -1.8394
17719SOL     OW54350   2.200   0.596   7.890  0.1716  0.0517  0.3173
17719SOL    HW154351   2.228   0.627   7.804  2.5907  0.3118  1.1442
17719SOL    HW254352   2.250   0.516   7.905 -0.4949 -0.1956  1.3361
17720SOL     OW54353   8.338   7.314   3.058  0.0213 -0.3336  0.4516
17720SOL    HW154354   8.289   7.316   3.140 -0.3879 -0.0927  0.2072
17720SOL    HW254355   8.318   7.229   3.020 -0.6319 -0.0358  0.1064
17721SOL     OW54356   8.048   0.318   6.177 -0.0662 -0.4034  0.1902
17721SOL    HW154357   8.010   0.405   6.163 -0.7453 -0.5532  0.9614
17721SOL    HW254358   8.028   0.299   6.269  1.0057 -0.9321  0.3203
17722SOL     OW54359   3.806   3.252   4.876  0.6757  0.0095 -0.4253
17722SOL    HW154360   3.854   3.301   4.943  1.5839  1.0003 -1.7680
17722SOL    HW254361   3.785   3.317   4.809 -0.3220 -0.9393 -1.0703
17723SOL     OW54362   3.319   5.076   2.054 -0.4693 -0.0685 -0.0270
17723SOL    HW154363   3.365   4.993   2.043 -1.9471 -0.9655  0.2340
17723SOL    HW254364   3.308   5.086   2.148  0.8086  1.0875  0.0234
17724SOL     OW54365   6.775   3.664   7.951 -0.0361  0.0043  0.3411
17724SOL    HW154366   6.689   3.633   7.921  0.4013 -0.4856 -0.4283
17724SOL    HW254367   6.784   3.625   8.039 -0.9321  0.7046  0.7622
17725SOL     OW54368   1.175   6.024   6.403 -0.2265 -0.0501  0.0308
17725SOL    HW154369   1.120   5.953   6.435  0.7468 -1.2335 -0.8051
17725SOL    HW254370   1.227   6.050   6.479  0.1662 -0.9856  0.0978
17726SOL     OW54371   6.446   5.435   6.637 -0.1951  0.4058  0.2813
17726SOL    HW154372   6.385   5.381   6.687 -0.5193 -0.8088 -1.3158
17726SOL    HW254373   6.491   5.488   6.702 -1.2871 -0.3770  1.7311
17727SOL     OW54374   2.630   4.782   0.943 -0.2949 -0.5065  0.1446
17727SOL    HW154375   2.558   4.820   0.892 -0.0323 -0.8034 -0.4556
17727SOL    HW254376   2.696   4.759   0.877  0.1848 -0.5946  0.6533
17728SOL     OW54377   0.506   6.036   2.960  0.1444  0.1132  0.6240
17728SOL    HW154378   0.424   6.083   2.971  0.8792  1.6235 -0.0665
17728SOL    HW254379   0.510   6.015   2.867 -0.5289 -2.0841  1.0262
17729SOL     OW54380   6.105   0.403   4.337  0.9590 -0.0818 -0.3786
17729SOL    HW154381   6.056   0.386   4.417 -0.4336 -0.3585 -1.2544
17729SOL    HW254382   6.130   0.495   4.343  0.4230  0.0355  0.1341
17730SOL     OW54383   0.456   7.967   7.868  0.3828 -0.2318  0.2654
17730SOL    HW154384   0.435   8.031   7.801  0.2902 -0.4141  0.1178
17730SOL    HW254385   0.548   7.983   7.889  0.2533  0.2060  0.5142
17731SOL     OW54386   2.314   0.491   7.188 -0.2640 -0.2915  0.1786
17731SOL    HW154387   2.384   0.473   7.126  2.4139 -1.3934  3.2403
17731SOL    HW254388   2.263   0.410   7.191 -0.5483 -0.1588 -0.6397
17732SOL     OW54389   1.496   7.930   0.253 -0.2961 -0.2508 -0.0222
17732SOL    HW154390   1.470   7.963   0.167  0.2493  0.6722  0.1558
17732SOL    HW254391   1.429   7.960   0.313 -1.1442 -1.6268 -0.2311
17733SOL     OW54392   4.148   3.056   1.582 -0.1474  0.2213  0.6178
17733SOL    HW154393   4.233   3.053   1.537  0.3463  0.2702  1.5212
17733SOL    HW254394   4.106   2.973   1.559 -0.2551  0.5863 -0.5696
17734SOL     OW54395   1.158   8.337   0.638 -0.0438  0.0176 -0.5276
17734SOL    HW154396   1.244   8.327   0.597  0.2789  1.9486 -0.4475
17734SOL    HW254397   1.164   8.421   0.684 -1.5298 -0.4741  0.6409
17735SOL     OW54398   3.364   2.836   5.159  0.0648  0.4419  0.0767
17735SOL    HW154399   3.417   2.827   5.080 -1.7771 -2.9143 -0.9889
17735SOL    HW254400   3.395   2.766   5.216 -3.4628 -2.2263 -0.9265
17736SOL     OW54401   7.166   0.267   1.698 -0.6018  0.4040  0.3582
17736SOL    HW154402   7.092   0.306   1.744 -0.6628 -0.7398  1.2996
17736SOL    HW254403   7.147   0.173   1.698 -0.1908  0.2893 -1.3089
17737SOL     OW54404   6.238   2.850   6.311 -0.5478  0.5879 -0.1096
17737SOL    HW154405   6.314   2.905   6.293  0.6165 -0.9972 -0.1995
17737SOL    HW254406   6.256   2.812   6.397  0.5304 -2.5446 -1.5873
17738SOL     OW54407   4.339   2.448   5.682  0.0684 -0.0529  0.0645
17738SOL    HW154408   4.362   2.529   5.637 -0.0430 -0.3561 -0.5440
17738SOL    HW254409   4.293   2.396   5.617 -0.7770 -0.1924  0.7512
17739SOL     OW54410   0.428   6.869   1.353 -0.7481 -0.0874  0.3393
17739SOL    HW154411   0.346   6.839   1.392 -0.7558  1.0443  1.2357
17739SOL    HW254412   0.409   6.955   1.318  0.0300  0.1691  0.5081
17740SOL     OW54413   0.616   7.097   2.369  0.0754  0.0467 -0.3008
17740SOL    HW154414   0.563   7.177   2.376  0.4573  0.1649  1.8918
17740SOL    HW254415   0.663   7.092   2.452  0.1458 -2.4300 -0.4186
17741SOL     OW54416   6.567   7.418   3.631  0.7237 -0.2011  0.0900
17741SOL    HW154417   6.629   7.399   3.561  0.7739 -0.6153  0.2424
17741SOL    HW254418   6.530   7.332   3.655  0.5618 -0.0403  0.4296
17742SOL     OW54419   7.021   2.835   1.136  0.4074  0.1579  0.1043
17742SOL    HW154420   7.034   2.900   1.205 -1.1715 -0.1913  0.7577
17742SOL    HW254421   7.106   2.831   1.091  1.8820 -0.4410  2.7133
17743SOL     OW54422   3.121   5.004   7.947 -0.4247 -0.2572  0.0916
17743SOL    HW154423   3.205   5.010   7.992 -1.3262  1.3166  1.6614
17743SOL    HW254424   3.082   4.922   7.979 -0.5862  0.3076  1.3779
17744SOL     OW54425   4.466   7.734   5.318 -0.3773  0.4467  0.6629
17744SOL    HW154426   4.432   7.652   5.282 -0.0764  0.4319  0.4158
17744SOL    HW254427   4.560   7.730   5.303 -0.7091  2.6845 -3.1602
17745SOL     OW54428   7.166   3.937   6.896 -0.2645 -0.0712 -0.4640
17745SOL    HW154429   7.171   3.976   6.809 -0.5097  1.4474  0.1768
17745SOL    HW254430   7.165   3.843   6.880  0.1046  0.1740 -2.0759
17746SOL     OW54431   4.127   0.127   3.802 -0.2088  0.1926 -0.1631
17746SOL    HW154432   4.060   0.138   3.870 -0.7834 -0.4600 -0.6035
17746SOL    HW254433   4.112   0.200   3.742  0.3405  0.8057  0.4400
17747SOL     OW54434   5.165   1.208   3.245  0.3626  1.1240 -0.1176
17747SOL    HW154435   5.186   1.159   3.165 -0.3037  1.1190 -0.2885
17747SOL    HW254436   5.250   1.239   3.276  0.5930  1.4611 -1.0446
17748SOL     OW54437   1.780   2.457   6.561  0.3557 -0.2801 -0.1799
17748SOL    HW154438   1.851   2.425   6.617  0.8596  1.1805  0.0612
17748SOL    HW254439   1.730   2.517   6.617  0.1600  0.2803 -0.9290
17749SOL     OW54440   6.925   4.003   5.078 -0.2157  0.1653 -0.1760
17749SOL    HW154441   6.921   3.959   4.993 -0.8298  0.7688 -0.4735
17749SOL    HW254442   6.938   3.933   5.141  0.7530 -0.2452 -0.8095
17750SOL     OW54443   0.627   1.697   4.693 -0.4532  0.4058 -0.1105
17750SOL    HW154444   0.616   1.607   4.662 -0.6460  0.5459 -0.4536
17750SOL    HW254445   0.706   1.729   4.649 -1.1778  0.8751 -1.1076
17751SOL     OW54446   3.218   1.169   4.551  0.2769 -0.0807  0.6046
17751SOL    HW154447   3.164   1.182   4.629  0.3541  0.0213  0.6425
17751SOL    HW254448   3.159   1.186   4.477  0.5158  1.1045  0.6566
17752SOL     OW54449   1.868   4.300   3.228  0.2737 -0.1091 -0.9345
17752SOL    HW154450   1.863   4.208   3.256  0.7710 -0.0718 -0.7264
17752SOL    HW254451   1.955   4.309   3.188  0.7545  0.6011  0.2346
17753SOL     OW54452   6.866   1.302   6.107  0.6130  0.2825 -0.3325
17753SOL    HW154453   6.945   1.276   6.060  1.0124 -1.1804  1.0759
17753SOL    HW254454   6.891   1.379   6.157  2.4913 -2.4412  3.3208
17754SOL     OW54455   6.527   0.100   1.909  0.2900 -0.7867 -0.3799
17754SOL    HW154456   6.466   0.137   1.846  1.0419  1.1292 -0.0721
17754SOL    HW254457   6.477   0.093   1.990  0.0875 -0.5331 -0.4809
17755SOL     OW54458   4.187   3.964   5.130  0.4204 -1.3492  0.5612
17755SOL    HW154459   4.168   4.006   5.046 -0.6785 -0.4386  1.2334
17755SOL    HW254460   4.264   4.009   5.162 -0.6093  0.0565  1.1631
17756SOL     OW54461   0.958   5.053   1.270 -0.3464  0.6552 -0.0073
17756SOL    HW154462   0.915   5.022   1.349 -1.5878  1.1771 -0.4564
17756SOL    HW254463   0.990   5.141   1.293  1.5746 -0.1598  0.6896
17757SOL     OW54464   0.958   0.645   5.097  0.1479  0.0940  0.1170
17757SOL    HW154465   1.001   0.729   5.111  1.7612 -0.3746 -1.6729
17757SOL    HW254466   1.028   0.587   5.067 -1.2707 -1.4231 -0.3968
17758SOL     OW54467   7.263   2.135   7.585 -0.6753 -0.0764 -0.2897
17758SOL    HW154468   7.236   2.188   7.510  3.2171  2.7364  0.0223
17758SOL    HW254469   7.212   2.169   7.659 -1.0836  0.4412 -0.8042
17759SOL     OW54470   4.883   1.092   0.230  0.2200  0.1151  0.4848
17759SOL    HW154471   4.892   1.040   0.150 -0.5227 -0.3654  0.7009
17759SOL    HW254472   4.882   1.026   0.300 -2.1340  0.2715  0.6734
17760SOL     OW54473   3.186   6.328   2.964  0.5204  0.5447 -0.4383
17760SOL    HW154474   3.271   6.366   2.944  0.0941  0.7072 -2.0687
17760SOL    HW254475   3.126   6.370   2.903 -0.4590 -0.6953 -0.3601
17761SOL     OW54476   6.637   7.082   6.417 -0.3949 -0.6901 -0.2331
17761SOL    HW154477   6.622   6.988   6.421 -0.4036 -0.6405  1.6261
17761SOL    HW254478   6.580   7.113   6.346 -1.3288 -1.9186 -0.0438
17762SOL     OW54479   8.286   7.056   2.955 -0.1659 -0.6195  0.2153
17762SOL    HW154480   8.255   7.083   2.868  0.8168 -0.0212  0.0419
17762SOL    HW254481   8.350   6.987   2.937  0.7950  0.2090  0.3952
17763SOL     OW54482   6.037   1.209   3.564 -0.0999 -0.2747 -0.1553
17763SOL    HW154483   6.068   1.293   3.597 -0.6516 -0.6185  1.3147
17763SOL    HW254484   6.116   1.155   3.556  0.1531  0.1184 -0.3234
17764SOL     OW54485   2.130   6.272   4.607  0.0544 -0.5354 -0.3295
17764SOL    HW154486   2.219   6.275   4.573  0.4092 -2.8222  0.2375
17764SOL    HW254487   2.126   6.342   4.673  1.1618  0.0887 -0.9010
17765SOL     OW54488   7.002   4.031   1.696  0.1419 -0.6767  0.5664
17765SOL    HW154489   6.955   4.100   1.742  1.3530  0.0291  0.7895
17765SOL    HW254490   7.015   3.963   1.763 -2.1250 -1.7449  0.0450
17766SOL     OW54491   5.701   4.405   8.285  0.1456 -0.2761 -0.5343
17766SOL    HW154492   5.759   4.373   8.353 -1.2649 -2.0375 -0.0921
17766SOL    HW254493   5.733   4.364   8.205  0.4266 -0.0022 -0.5663
17767SOL     OW54494   4.579   4.359   3.159 -0.0555 -0.2299 -0.3455
17767SOL    HW154495   4.655   4.301   3.159  2.0859  2.3850 -0.9231
17767SOL    HW254496   4.588   4.410   3.239 -0.8798  0.5373 -0.7297
17768SOL     OW54497   3.547   2.200   2.242 -0.2661  0.0532 -0.2631
17768SOL    HW154498   3.611   2.244   2.298  2.2684 -2.3640 -0.9812
17768SOL    HW254499   3.474   2.179   2.300  0.6855  0.7425  1.2499
17769SOL     OW54500   0.177   8.181   1.816  0.0863 -0.7939  0.1547
17769SOL    HW154501   0.131   8.149   1.739  2.2486 -1.9165 -0.7733
17769SOL    HW254502   0.113   8.174   1.887 -1.5018 -1.1332 -1.2567
17770SOL     OW54503   5.021   1.098   0.686 -0.3293  0.3052  0.1814
17770SOL    HW154504   5.116   1.098   0.673 -0.3624  0.1456 -0.0621
17770SOL    HW254505   4.999   1.189   0.704 -0.0606  0.2650  0.7513
17771SOL     OW54506   0.017   1.590   1.229  0.7105  0.0487 -0.2352
17771SOL    HW154507   0.046   1.659   1.289 -2.4626  0.1863  1.4021
17771SOL    HW254508  -0.009   1.636   1.149 -1.0317  0.8063  0.7093
17772SOL     OW54509   2.284   4.437   3.432  0.4215  0.5344 -0.7025
17772SOL    HW154510   2.368   4.443   3.386  0.5806  3.1404 -0.2514
17772SOL    HW254511   2.222   4.405   3.366  1.7865 -2.0058 -0.8913
17773SOL     OW54512   3.964   5.877   6.202 -0.2539 -0.1729  0.0825
17773SOL    HW154513   3.925   5.950   6.153 -0.4701 -0.6459 -0.4501
17773SOL    HW254514   3.952   5.902   6.294  1.7318  1.5570 -0.0585
17774SOL     OW54515   0.768   8.015   7.184  0.0841 -0.4482 -0.2884
17774SOL    HW154516   0.861   8.039   7.179 -0.0524 -0.0108 -0.9074
17774SOL    HW254517   0.723   8.097   7.204 -0.1796 -0.6363 -0.1058
17775SOL     OW54518   1.528   0.106   2.378  0.0362  0.5609 -0.0730
17775SOL    HW154519   1.579   0.164   2.434 -0.6281 -0.2041  1.3942
17775SOL    HW254520   1.437   0.121   2.405 -0.0862 -1.9525  1.2338
17776SOL     OW54521   0.932   2.109   8.327  0.4936  0.5745 -0.3393
17776SOL    HW154522   0.864   2.075   8.385  0.1990  1.7689  0.0576
17776SOL    HW254523   0.910   2.074   8.241  0.5035 -0.6125  0.1196
17777SOL     OW54524   4.808   6.555   0.725  0.2180 -0.2844  0.7520
17777SOL    HW154525   4.809   6.618   0.652  1.7431  0.5469  1.4465
17777SOL    HW254526   4.899   6.548   0.751 -0.0749 -1.9612  1.4383
17778SOL     OW54527   0.399   7.870   2.222  0.5828  0.1631 -0.0601
17778SOL    HW154528   0.338   7.884   2.295  1.1837  0.0160  0.4773
17778SOL    HW254529   0.400   7.775   2.209  1.8255  0.0037  0.9421
17779SOL     OW54530   4.103   5.625   7.550 -0.6277 -0.1977  0.1573
17779SOL    HW154531   4.057   5.543   7.531  0.6260 -1.0670  0.7292
17779SOL    HW254532   4.193   5.609   7.520  0.1047  0.2775  1.9744
17780SOL     OW54533   4.229   0.813   4.517 -0.7533  0.7411 -0.1485
17780SOL    HW154534   4.250   0.726   4.552  1.6751  0.0351 -2.9596
17780SOL    HW254535   4.133   0.817   4.520 -1.0147 -2.3947 -0.5649
17781SOL     OW54536   0.169   0.590   7.163 -0.2200 -0.7149  0.6695
17781SOL    HW154537   0.127   0.667   7.124 -0.4083 -0.6885  0.9219
17781SOL    HW254538   0.256   0.587   7.123  0.0063 -0.0326  1.0987
17782SOL     OW54539   8.083   0.061   6.061 -0.0874 -0.2503  0.3775
17782SOL    HW154540   8.067   0.147   6.100 -0.2896 -0.2896  0.3843
17782SOL    HW254541   8.147   0.019   6.119  0.7714  0.2789 -0.1670
17783SOL     OW54542   2.901   6.926   0.286 -0.4104 -0.1027 -0.2180
17783SOL    HW154543   2.952   6.876   0.351 -1.9480 -1.1149  0.2813
17783SOL    HW254544   2.834   6.864   0.257 -0.7429  0.8691 -1.5920
17784SOL     OW54545   5.994   8.152   1.501  0.2182  0.0534  0.4778
17784SOL    HW154546   5.972   8.088   1.569 -3.9315  1.1389  0.3708
17784SOL    HW254547   6.035   8.224   1.548 -0.4220 -0.2205  1.4753
17785SOL     OW54548   6.809   1.882   3.585 -0.5172  0.3301  0.1733
17785SOL    HW154549   6.848   1.929   3.659 -0.8006 -0.5284  0.8839
17785SOL    HW254550   6.746   1.943   3.548  0.7160  1.3446 -0.3303
17786SOL     OW54551   3.146   5.946   3.262  0.4919 -0.1020  0.4463
17786SOL    HW154552   3.111   6.013   3.204  1.2875  0.8965  1.0856
17786SOL    HW254553   3.076   5.931   3.326  0.9080  1.3136  1.2601
17787SOL     OW54554   5.036   8.366   4.258 -0.6826 -0.2449 -0.7276
17787SOL    HW154555   5.040   8.438   4.321  1.4280 -1.1070  0.2194
17787SOL    HW254556   5.032   8.409   4.173 -2.2054  0.9414 -0.1144
17788SOL     OW54557   2.159   8.536   6.614  0.3061  0.1572 -0.6335
17788SOL    HW154558   2.195   8.503   6.532  0.6125  1.8267 -1.2250
17788SOL    HW254559   2.154   8.631   6.601 -0.0179  0.4186  1.1415
17789SOL     OW54560   5.429   7.467   0.527  0.3065  0.0862  0.2523
17789SOL    HW154561   5.502   7.506   0.479  0.5139 -0.2735  0.2731
17789SOL    HW254562   5.469   7.397   0.579 -0.3909 -1.7116 -1.5236
17790SOL     OW54563   1.950   6.568   6.738 -0.0642 -0.0778  0.2519
17790SOL    HW154564   2.032   6.605   6.704 -0.8708  2.2505  0.6174
17790SOL    HW254565   1.887   6.580   6.666 -0.9444  1.6955  1.2471
17791SOL     OW54566   8.602   6.968   1.738  0.1447  0.6272 -0.1526
17791SOL    HW154567   8.664   6.899   1.716  0.0786  0.9425 -1.3750
17791SOL    HW254568   8.618   7.036   1.673 -0.5391  1.3051  0.3751
17792SOL     OW54569   2.364   4.291   3.643 -0.1322 -0.3995 -0.6464
17792SOL    HW154570   2.277   4.257   3.664 -0.0488  0.4471  1.3247
17792SOL    HW254571   2.347   4.364   3.583 -0.9332  0.4784  0.5789
17793SOL     OW54572   0.302   2.875   6.015  0.4278  0.3511 -0.1210
17793SOL    HW154573   0.284   2.830   6.098 -0.1388  0.1226 -0.3624
17793SOL    HW254574   0.225   2.858   5.961  1.0905 -0.1099 -0.9601
17794SOL     OW54575   5.794   3.096   8.536 -0.3205  0.0733  0.1560
17794SOL    HW154576   5.730   3.099   8.465  1.4483  0.4396 -1.4765
17794SOL    HW254577   5.761   3.027   8.594 -0.9890 -1.3726 -1.8264
17795SOL     OW54578   5.303   6.564   0.354  0.8901  0.2586 -0.8173
17795SOL    HW154579   5.385   6.517   0.370  0.4061 -0.9229 -1.6925
17795SOL    HW254580   5.314   6.647   0.401  2.1130 -0.3589  0.0430
17796SOL     OW54581   7.119   5.972   3.587  0.0602 -0.4752 -0.5614
17796SOL    HW154582   7.102   5.886   3.626 -1.3610 -0.2632 -0.6549
17796SOL    HW254583   7.040   5.992   3.538  0.3430  0.9312 -0.4835
17797SOL     OW54584   1.508   6.529   5.269  0.2522  0.1254  0.0176
17797SOL    HW154585   1.446   6.529   5.196 -0.4794  1.8407  0.5871
17797SOL    HW254586   1.540   6.619   5.274  2.8306 -0.7106 -0.2475
17798SOL     OW54587   6.981   0.654   3.921 -0.2447 -0.1031 -0.0409
17798SOL    HW154588   6.991   0.559   3.914  0.6624  0.0651 -1.1897
17798SOL    HW254589   6.887   0.669   3.910 -0.3875 -0.8618  0.1089
17799SOL     OW54590   3.813   2.529   2.536 -0.3019  0.1094 -0.4021
17799SOL    HW154591   3.791   2.484   2.618  1.4338 -0.3902 -0.1560
17799SOL    HW254592   3.745   2.502   2.475 -1.5406  0.3511  0.8063
17800SOL     OW54593   3.200   5.758   0.135 -0.0072 -0.2232  0.1437
17800SOL    HW154594   3.142   5.758   0.058 -0.8446  0.3902  0.7598
17800SOL    HW254595   3.141   5.746   0.209  0.2765  3.0601  1.0222
17801SOL     OW54596   0.268   6.162   2.969 -0.3901 -0.0467 -0.9992
17801SOL    HW154597   0.270   6.258   2.971 -0.3122 -0.0623  0.2285
17801SOL    HW254598   0.251   6.136   3.060  0.2272 -1.2148 -1.1970
17802SOL     OW54599   4.226   4.726   2.749 -0.0912 -0.1772 -0.1230
17802SOL    HW154600   4.141   4.726   2.793 -0.0963 -0.8874 -0.1098
17802SOL    HW254601   4.212   4.774   2.668 -0.9925 -1.8367 -0.9987
17803SOL     OW54602   5.019   0.125   1.377  0.4062 -0.3274  0.4438
17803SOL    HW154603   5.009   0.195   1.441 -1.3947  0.4734 -0.6443
17803SOL    HW254604   4.949   0.063   1.398 -0.7417  0.3489 -1.1887
17804SOL     OW54605   5.365   3.889   7.606 -0.3583  0.4405  0.5559
17804SOL    HW154606   5.427   3.833   7.654 -1.0216 -1.9239 -1.1618
17804SOL    HW254607   5.279   3.858   7.633 -0.7406  0.5076 -0.5346
17805SOL     OW54608   4.922   2.224   6.824 -0.0067 -0.0074  0.1336
17805SOL    HW154609   4.889   2.135   6.812 -1.6585  0.3472  1.6258
17805SOL    HW254610   4.862   2.278   6.772  0.6278  0.3023 -0.2876
17806SOL     OW54611   4.242   3.347   3.331 -0.1344  0.0857  0.2183
17806SOL    HW154612   4.300   3.415   3.366  0.9315 -1.1584  1.0043
17806SOL    HW254613   4.281   3.323   3.247  0.3347 -0.5408  0.6073
17807SOL     OW54614   2.391   4.846   3.220  0.1841 -0.5231  0.3063
17807SOL    HW154615   2.318   4.898   3.252 -0.0209 -0.4033 -0.3381
17807SOL    HW254616   2.454   4.846   3.292 -0.7341 -1.2159  1.1464
17808SOL     OW54617   7.741   6.854   5.287  0.3976  0.0126  0.2065
17808SOL    HW154618   7.776   6.893   5.367  2.0990 -0.5612 -0.2146
17808SOL    HW254619   7.666   6.910   5.264 -0.0540  0.2543  2.0976
17809SOL     OW54620   8.412   6.179   3.583 -0.1793 -0.4550  0.4716
17809SOL    HW154621   8.341   6.139   3.633 -1.3656  0.0661 -0.7649
17809SOL    HW254622   8.446   6.247   3.641 -0.7720 -0.6031  1.0132
17810SOL     OW54623   6.531   2.242   3.655 -0.3989  0.4582 -0.0748
17810SOL    HW154624   6.504   2.230   3.564 -0.6037  0.8250 -0.0608
17810SOL    HW254625   6.522   2.335   3.671 -1.9883  0.1847  0.8298
17811SOL     OW54626   4.509   7.384   0.882  0.5039 -0.0995  0.4123
17811SOL    HW154627   4.568   7.458   0.869 -1.0666  1.4096  1.3985
17811SOL    HW254628   4.513   7.365   0.976  0.4901 -0.9171  0.2570
17812SOL     OW54629   1.871   8.031   5.287  0.1635 -0.8390 -0.3175
17812SOL    HW154630   1.781   7.998   5.287 -0.2648  0.2110 -2.0251
17812SOL    HW254631   1.912   7.987   5.213  1.0944 -1.3619  0.4968
17813SOL     OW54632   6.190   4.563   4.854 -0.0204 -0.0583  0.2445
17813SOL    HW154633   6.193   4.657   4.872 -0.5117  0.1135 -0.5153
17813SOL    HW254634   6.099   4.546   4.829  0.0641 -0.7384  0.3675
17814SOL     OW54635   4.481   0.608   5.216 -0.2860  0.5931  0.5081
17814SOL    HW154636   4.467   0.633   5.124 -0.3568  2.0599  0.8972
17814SOL    HW254637   4.512   0.688   5.258  1.6411 -0.5292  1.3754
17815SOL     OW54638   4.714   7.062   5.204 -0.1159  0.2127 -0.9564
17815SOL    HW154639   4.655   7.010   5.260 -0.6266 -0.3912 -2.0351
17815SOL    HW254640   4.782   7.092   5.264 -0.2912 -0.9656 -0.1119
17816SOL     OW54641   6.150   2.930   1.885 -0.0599 -0.3092 -0.0609
17816SOL    HW154642   6.183   2.963   1.969  1.8093  1.4729 -1.4124
17816SOL    HW254643   6.079   2.990   1.862  0.6965  0.3924 -0.6240
17817SOL     OW54644   4.282   0.848   5.628 -0.2276  0.3603 -0.2789
17817SOL    HW154645   4.248   0.768   5.589 -0.3670  0.1587  0.2512
17817SOL    HW254646   4.325   0.894   5.556  2.4475 -1.5634 -0.0463
17818SOL     OW54647   4.674   4.699   6.464  0.0103  0.3977  0.7784
17818SOL    HW154648   4.646   4.609   6.446  1.4610  0.3212 -1.6597
17818SOL    HW254649   4.598   4.740   6.506 -1.3300 -1.4732  0.3271
17819SOL     OW54650   6.650   7.110   5.955 -0.2474  0.1465  0.1577
17819SOL    HW154651   6.699   7.177   5.907 -1.1893  0.0014 -1.0526
17819SOL    HW254652   6.716   7.045   5.981  0.4934  0.9672  0.3497
17820SOL     OW54653   4.177   8.222   0.788 -0.2608  0.1686  0.4660
17820SOL    HW154654   4.200   8.290   0.853  3.4100 -1.3588  1.0169
17820SOL    HW254655   4.225   8.248   0.709 -0.3582 -0.7965  0.0858
17821SOL     OW54656   2.808   3.379   6.130  0.3531 -0.7845  0.5746
17821SOL    HW154657   2.870   3.434   6.179  1.1240  0.2046 -1.4092
17821SOL    HW254658   2.722   3.408   6.160  0.7777 -1.4147  2.5687
17822SOL     OW54659   3.338   4.102   6.965 -0.6449 -0.2469 -0.4966
17822SOL    HW154660   3.283   4.149   7.028 -1.1588 -1.8109  0.2600
17822SOL    HW254661   3.427   4.133   6.984 -0.8413 -0.3817  0.7367
17823SOL     OW54662   4.839   3.806   3.362 -0.5761 -0.1667 -0.0286
17823SOL    HW154663   4.858   3.714   3.378 -1.1784 -0.2770  0.0927
17823SOL    HW254664   4.777   3.830   3.431 -1.9849 -0.2137 -1.2285
17824SOL     OW54665   0.801   7.065   2.575 -0.8720 -0.3846  0.0466
17824SOL    HW154666   0.855   7.014   2.635 -2.6589 -2.7299 -0.1928
17824SOL    HW254667   0.863   7.100   2.511  0.6124 -1.1418  1.0190
17825SOL     OW54668   3.647   8.463   0.649 -0.3911  0.2407  0.0236
17825SOL    HW154669   3.650   8.416   0.566 -1.3766  0.6306 -0.2397
17825SOL    HW254670   3.649   8.395   0.716 -0.0443 -0.0904 -0.3191
17826SOL     OW54671   4.179   5.233   1.939 -0.3942  0.0285  0.7606
17826SOL    HW154672   4.215   5.319   1.962  1.9035 -0.6638  0.0713
17826SOL    HW254673   4.086   5.240   1.959 -0.1367  2.3967  1.5077
17827SOL     OW54674   0.860   5.311   6.927 -0.4893  0.0509  0.3037
17827SOL    HW154675   0.771   5.296   6.893 -0.5123 -0.8536  0.7292
17827SOL    HW254676   0.851   5.387   6.985 -1.2863 -0.8662  1.4310
17828SOL     OW54677   7.278   0.171   7.993 -0.0485  0.1149  0.3970
17828SOL    HW154678   7.361   0.188   8.039  0.2318 -0.9547  0.3192
17828SOL    HW254679   7.279   0.231   7.919  0.0040  1.0943  1.1636
17829SOL     OW54680   5.206   8.265   5.175  0.4342 -0.1347  0.0838
17829SOL    HW154681   5.183   8.310   5.094  1.5412  1.1138  0.4307
17829SOL    HW254682   5.255   8.187   5.147 -0.5463 -0.5612 -0.4818
17830SOL     OW54683   2.159   2.200   7.864 -0.4766 -0.0537  0.1176
17830SOL    HW154684   2.221   2.128   7.850  1.4019  1.0988  2.0320
17830SOL    HW254685   2.087   2.160   7.913  1.0458 -0.4961  2.1101
17831SOL     OW54686   1.917   1.698   0.768 -0.7909 -0.7202 -0.4759
17831SOL    HW154687   1.930   1.666   0.679  0.0307  2.1954 -1.4945
17831SOL    HW254688   1.987   1.657   0.818  0.3621 -0.3757 -1.7533
17832SOL     OW54689   4.212   7.292   8.273  0.7611  0.0921 -0.2712
17832SOL    HW154690   4.283   7.323   8.329  0.7426 -0.6423  0.1754
17832SOL    HW254691   4.142   7.356   8.285  0.9255  0.1905  0.1826
17833SOL     OW54692   5.923   0.985   2.490 -0.2160 -0.2169 -0.2215
17833SOL    HW154693   6.011   0.977   2.454 -0.0799 -2.0319  0.4100
17833SOL    HW254694   5.874   1.036   2.425  0.9645 -0.2742 -1.1759
17834SOL     OW54695   5.898   8.496   2.250  0.1858 -0.3405  0.2630
17834SOL    HW154696   5.918   8.587   2.272 -0.2378 -0.2806  0.3991
17834SOL    HW254697   5.933   8.485   2.161  1.6260 -0.4948  0.8150
17835SOL     OW54698   6.288   5.304   6.831  0.0429 -0.6228  0.1728
17835SOL    HW154699   6.306   5.233   6.893 -1.2371  0.2985  1.6753
17835SOL    HW254700   6.204   5.281   6.791 -0.3609  0.0104  0.6376
17836SOL     OW54701   5.187   3.794   5.558  0.2796  0.7893 -0.4218
17836SOL    HW154702   5.210   3.765   5.469 -0.4292 -0.3062 -0.2701
17836SOL    HW254703   5.096   3.825   5.550  0.3477  1.0618 -0.1535
17837SOL     OW54704   3.354   3.616   7.676  0.5347  0.2723  0.3969
17837SOL    HW154705   3.312   3.553   7.618  0.9888  0.2083  0.1376
17837SOL    HW254706   3.427   3.651   7.626  1.5495 -0.5203  1.2741
17838SOL     OW54707   0.174   4.360   4.544  0.2216 -0.0377  0.5051
17838SOL    HW154708   0.139   4.417   4.475  2.1702 -0.7600 -1.1690
17838SOL    HW254709   0.121   4.281   4.538  1.1694 -0.5970 -1.0917
17839SOL     OW54710   8.107   6.844   3.049 -0.3613  0.3649 -0.5341
17839SOL    HW154711   8.158   6.925   3.043 -0.7866  0.7228  0.4151
17839SOL    HW254712   8.045   6.848   2.977  1.1670 -0.2452 -1.9348
17840SOL     OW54713   3.681   6.442   0.288  0.4521 -0.2865  0.1903
17840SOL    HW154714   3.722   6.409   0.367  2.2745  0.7989 -0.2522
17840SOL    HW254715   3.720   6.392   0.217  1.2890  0.9652 -0.2636
17841SOL     OW54716   3.392   4.819   2.052  0.4973  0.0077 -0.1365
17841SOL    HW154717   3.376   4.783   1.964  0.3752  0.4803 -0.3068
17841SOL    HW254718   3.480   4.790   2.073  0.3905 -0.4198 -0.2625
17842SOL     OW54719   5.118   7.381   6.380 -0.0523 -0.0634 -0.1792
17842SOL    HW154720   5.067   7.319   6.431 -1.5510  0.8457 -0.5024
17842SOL    HW254721   5.195   7.332   6.352  0.3746 -0.8441  2.1581
17843SOL     OW54722   7.884   4.747   4.025  0.0074  0.0938 -0.1459
17843SOL    HW154723   7.971   4.786   4.028  1.0405 -1.9879 -1.5385
17843SOL    HW254724   7.827   4.818   3.995  1.0190  1.7233  1.6041
17844SOL     OW54725   3.190   3.595   1.123  0.3743 -0.6454 -0.8197
17844SOL    HW154726   3.209   3.684   1.154  0.2166 -0.7471 -0.4307
17844SOL    HW254727   3.194   3.541   1.201 -1.7051 -0.6636 -0.6735
17845SOL     OW54728   5.743   1.563   5.113 -0.3848 -0.5831  0.2617
17845SOL    HW154729   5.654   1.543   5.140 -0.3575 -1.6019 -0.3857
17845SOL    HW254730   5.793   1.563   5.194 -0.7788 -1.0538  0.5089
17846SOL     OW54731   5.450   3.549   1.468 -0.5716  0.0798  0.0131
17846SOL    HW154732   5.497   3.476   1.429 -2.0657 -0.0146 -1.7002
17846SOL    HW254733   5.358   3.531   1.452 -1.0771  1.5811  0.9395
17847SOL     OW54734   1.099   4.118   1.952 -0.5498  0.1984  0.1213
17847SOL    HW154735   1.026   4.106   1.892 -0.2684  1.6944 -0.5642
17847SOL    HW254736   1.161   4.049   1.929 -1.6155 -0.9353  0.5539
17848SOL     OW54737   6.500   7.413   2.301 -0.5568  0.4810 -0.4764
17848SOL    HW154738   6.453   7.345   2.253  2.1343 -1.2659 -0.8712
17848SOL    HW254739   6.559   7.452   2.236  0.4792  0.6898  0.5495
17849SOL     OW54740   7.884   6.903   2.900  0.4007  0.1201  0.2269
17849SOL    HW154741   7.861   6.810   2.887 -0.3544  0.2452  0.6061
17849SOL    HW254742   7.825   6.932   2.969  1.3711  0.6108  0.8700
17850SOL     OW54743   3.256   1.555   6.909 -0.2605 -0.4959 -0.3162
17850SOL    HW154744   3.295   1.481   6.862  1.0661 -0.2053  0.2836
17850SOL    HW254745   3.214   1.608   6.840  0.6171 -0.7008 -1.0215
17851SOL     OW54746   5.889   5.514   0.969 -0.0482  0.8737 -0.8256
17851SOL    HW154747   5.957   5.448   0.983 -0.1406  0.6008 -1.5921
17851SOL    HW254748   5.833   5.507   1.046 -0.8995 -0.9948 -1.5350
17852SOL     OW54749   4.114   6.241   2.928  0.0244 -0.3663 -0.8011
17852SOL    HW154750   4.091   6.334   2.925  0.8036 -0.1634 -0.7142
17852SOL    HW254751   4.161   6.226   2.845  1.7885 -0.1530  0.1029
17853SOL     OW54752   4.309   2.408   6.878  0.3728 -0.0236  0.4143
17853SOL    HW154753   4.342   2.482   6.931 -0.2352  0.0706  0.6750
17853SOL    HW254754   4.260   2.450   6.807 -0.3605 -0.1698  0.8189
17854SOL     OW54755   3.572   2.357   7.682  0.2458  0.2371 -0.9151
17854SOL    HW154756   3.484   2.376   7.649 -1.3555 -0.5610  2.3671
17854SOL    HW254757   3.597   2.437   7.729  0.3256 -0.2313 -0.1341
17855SOL     OW54758   4.323   1.840   2.836  0.3135  0.3508  0.2130
17855SOL    HW154759   4.373   1.900   2.781  1.1981 -0.5581  0.0007
17855SOL    HW254760   4.252   1.809   2.780 -1.6477  2.9842  1.0335
17856SOL     OW54761   4.840   5.090   3.913  0.0580 -0.2987  0.1997
17856SOL    HW154762   4.899   5.049   3.976 -1.4109 -0.6704  1.3874
17856SOL    HW254763   4.790   5.018   3.876  0.4885 -0.0160 -1.0025
17857SOL     OW54764   5.805   3.570   5.864  0.4334  0.4406 -0.0297
17857SOL    HW154765   5.724   3.533   5.899  0.7426 -0.6924 -0.4859
17857SOL    HW254766   5.872   3.546   5.928  1.1885 -2.5190 -1.7908
17858SOL     OW54767   7.061   7.654   4.683  0.2598 -0.0096 -0.0874
17858SOL    HW154768   7.009   7.734   4.672  0.0152 -0.0677  0.5906
17858SOL    HW254769   6.998   7.583   4.671  0.2824 -0.0876  0.2544
17859SOL     OW54770   1.369   6.048   6.649 -0.2853  0.3259 -0.2869
17859SOL    HW154771   1.342   5.958   6.664  0.7289  0.3112  1.7524
17859SOL    HW254772   1.459   6.053   6.682  0.1912  1.7653 -1.6300
17860SOL     OW54773   4.121   4.672   6.645  0.3232 -0.2647 -0.1464
17860SOL    HW154774   4.111   4.602   6.581 -1.3720  0.1286 -0.3705
17860SOL    HW254775   4.136   4.751   6.593 -1.2019  0.0786 -0.1022
17861SOL     OW54776   4.839   8.225   8.321 -0.1284 -0.6737  0.3351
17861SOL    HW154777   4.848   8.179   8.405 -1.3626 -3.0068 -0.7260
17861SOL    HW254778   4.917   8.201   8.272  1.1852  1.6287  1.1286
17862SOL     OW54779   5.503   7.177   2.002 -0.0352  0.4291 -0.0448
17862SOL    HW154780   5.453   7.213   1.929 -0.1313 -1.3199 -0.9013
17862SOL    HW254781   5.537   7.253   2.048 -1.5888  1.6184 -0.7740
17863SOL     OW54782   7.482   6.321   2.250 -0.5388 -0.0109 -0.2914
17863SOL    HW154783   7.455   6.242   2.203  1.3839 -0.7758 -0.2006
17863SOL    HW254784   7.565   6.296   2.293 -1.4926  1.0470  2.4039
17864SOL     OW54785   2.314   6.841   5.061 -0.0349 -1.0246 -0.1759
17864SOL    HW154786   2.289   6.874   5.147  3.4887  1.3085  0.1432
17864SOL    HW254787   2.262   6.894   5.000 -0.7162 -0.9390  0.4610
17865SOL     OW54788   0.134   3.781   2.349  0.1423  0.0055  0.1871
17865SOL    HW154789   0.079   3.792   2.426 -1.3281  0.5515 -0.8827
17865SOL    HW254790   0.183   3.701   2.366 -1.5118 -0.9143  0.9194
17866SOL     OW54791   6.575   7.314   7.325  0.0961 -0.2032 -0.6543
17866SOL    HW154792   6.549   7.362   7.247  1.3381 -0.9830 -1.5751
17866SOL    HW254793   6.496   7.313   7.380 -0.0222  2.7918 -0.6071
17867SOL     OW54794   1.445   7.613   5.926  0.0459 -0.1243  0.2243
17867SOL    HW154795   1.524   7.667   5.917 -0.7749  1.4317  1.7908
17867SOL    HW254796   1.454   7.573   6.013 -0.7972 -0.0618  0.3463
17868SOL     OW54797   5.528   4.835   8.392 -0.3119  0.9247 -0.9498
17868SOL    HW154798   5.622   4.852   8.381  0.2837  1.3073  3.1201
17868SOL    HW254799   5.519   4.740   8.381  0.7014  0.7951 -0.7620
17869SOL     OW54800   0.660   4.855   2.826 -0.0500  0.0324  0.3784
17869SOL    HW154801   0.573   4.885   2.798  0.2902  1.0381  0.3310
17869SOL    HW254802   0.708   4.936   2.844  1.2915 -0.4428 -0.8710
17870SOL     OW54803   5.428   4.490   6.259  0.1327  0.0325  0.3078
17870SOL    HW154804   5.509   4.439   6.266  0.3308 -0.0570 -1.8915
17870SOL    HW254805   5.450   4.561   6.198 -1.7162 -0.6472 -1.2358
17871SOL     OW54806   5.163   1.797   3.981 -0.3474 -0.0136  0.7035
17871SOL    HW154807   5.102   1.740   3.935  0.0152 -0.8807  1.2864
17871SOL    HW254808   5.249   1.774   3.947 -0.3335  1.3095 -0.2260
17872SOL     OW54809   3.589   7.536   4.967  0.4437 -0.0645  0.3639
17872SOL    HW154810   3.507   7.534   5.016 -0.9878  0.7502 -1.8229
17872SOL    HW254811   3.581   7.613   4.910  2.6450 -0.1031 -0.0958
17873SOL     OW54812   1.655   1.690   7.192  0.0736  0.1211  0.2527
17873SOL    HW154813   1.723   1.728   7.136  0.2034  1.3641  1.2194
17873SOL    HW254814   1.703   1.634   7.252  0.0594 -0.2903 -0.1146
17874SOL     OW54815   4.053   2.215   3.899  0.0142 -0.4400 -0.4920
17874SOL    HW154816   4.130   2.264   3.871 -0.3267  0.3781 -0.0330
17874SOL    HW254817   4.086   2.154   3.964  0.2244  0.1646 -0.0209
17875SOL     OW54818   1.514   6.060   4.126  0.0064 -0.3813  0.7946
17875SOL    HW154819   1.476   6.079   4.040 -0.8314 -0.3586  1.1636
17875SOL    HW254820   1.492   5.969   4.142 -0.1717 -0.2737  1.1581
17876SOL     OW54821   6.230   5.044   3.463 -0.0552 -0.0480 -0.2745
17876SOL    HW154822   6.244   5.088   3.379 -2.2373  3.5070  0.9728
17876SOL    HW254823   6.282   5.095   3.526  1.3352 -2.4624  0.6745
17877SOL     OW54824   8.393   1.753   8.573 -0.8895 -0.0819  0.0743
17877SOL    HW154825   8.398   1.849   8.571 -2.7112  0.0460  0.1120
17877SOL    HW254826   8.438   1.725   8.494 -3.3140  1.0016 -1.8097
17878SOL     OW54827   5.486   7.591   1.651 -0.0130 -0.2116  0.1565
17878SOL    HW154828   5.533   7.509   1.639  1.1554  0.5318 -0.5129
17878SOL    HW254829   5.555   7.656   1.666 -0.9997  0.2406  3.4204
17879SOL     OW54830   5.560   1.923   6.859  1.0249  0.7208 -0.3281
17879SOL    HW154831   5.593   1.882   6.939 -0.4008  1.4906  0.6936
17879SOL    HW254832   5.473   1.955   6.882  0.5168  0.8421 -2.2407
17880SOL     OW54833   7.209   4.115   2.606  0.1831 -0.1147  0.7722
17880SOL    HW154834   7.177   4.165   2.681 -0.9276  1.0016 -0.3961
17880SOL    HW254835   7.160   4.150   2.531  2.3996 -0.0605 -0.7329
17881SOL     OW54836   3.487   5.937   2.387 -0.1668  0.4947  0.7942
17881SOL    HW154837   3.442   5.855   2.409  1.8922 -0.5905  1.1552
17881SOL    HW254838   3.429   5.979   2.323 -0.9846 -1.5471  0.0900
17882SOL     OW54839   1.192   8.157   5.210  0.0273 -0.1483  0.1135
17882SOL    HW154840   1.275   8.122   5.243  0.3013 -1.4583 -1.7690
17882SOL    HW254841   1.217   8.230   5.154 -0.3927  1.6862  2.1762
17883SOL     OW54842   7.455   1.254   5.509 -0.7913 -0.4484  0.6581
17883SOL    HW154843   7.424   1.184   5.565 -0.9631 -0.9197 -0.0090
17883SOL    HW254844   7.550   1.247   5.511 -0.8059 -0.6301  0.6784
17884SOL     OW54845   4.230   5.012   0.596  0.7137 -0.4023  0.1382
17884SOL    HW154846   4.146   4.991   0.638 -0.5647  0.0098 -2.0669
17884SOL    HW254847   4.210   5.083   0.535  2.4359 -1.0460 -1.2640
17885SOL     OW54848   6.553   5.072   2.670  0.0841 -0.3199  0.4494
17885SOL    HW154849   6.637   5.107   2.698  0.3515 -0.7135  0.1411
17885SOL    HW254850   6.488   5.132   2.708  0.5467  0.7091 -0.3627
17886SOL     OW54851   1.734   5.728   5.403  0.2009 -0.0013  0.5216
17886SOL    HW154852   1.651   5.691   5.433  0.6864 -1.0152  0.6443
17886SOL    HW254853   1.710   5.811   5.362 -0.6526  0.7572  2.4361
17887SOL     OW54854   1.651   6.357   0.562 -0.6397 -0.1009 -0.3197
17887SOL    HW154855   1.637   6.263   0.568 -1.9783  0.0879 -0.0392
17887SOL    HW254856   1.608   6.393   0.640  1.1684  0.6455  0.3975
17888SOL     OW54857   2.776   3.301   1.276 -0.1050  0.0237  0.0095
17888SOL    HW154858   2.799   3.326   1.187  1.1850  2.2533  0.8619
17888SOL    HW254859   2.851   3.251   1.308  0.3879  1.0018  0.4509
17889SOL     OW54860   3.127   0.660   0.555 -0.0934  0.3935 -0.7054
17889SOL    HW154861   3.202   0.699   0.509 -0.4171 -0.4663 -2.0379
17889SOL    HW254862   3.079   0.613   0.486 -0.6724 -0.8714  0.5230
17890SOL     OW54863   7.950   1.862   3.084 -0.1037  0.0090 -0.1435
17890SOL    HW154864   8.017   1.804   3.049  0.2234 -0.8566  1.7701
17890SOL    HW254865   7.940   1.835   3.176 -1.3146  1.7387  0.2933
17891SOL     OW54866   8.217   4.801   4.817 -0.2065  0.0833  0.2670
17891SOL    HW154867   8.162   4.722   4.821  0.2827 -0.3241 -0.7059
17891SOL    HW254868   8.276   4.785   4.744  0.5907  0.9228  0.7091
17892SOL     OW54869   0.511   1.746   8.541  0.4496  0.2354 -0.5415
17892SOL    HW154870   0.498   1.675   8.477  0.6629 -0.5607  0.2793
17892SOL    HW254871   0.606   1.749   8.553  0.4097  0.3891 -0.2708
17893SOL     OW54872   4.625   6.833   5.650  1.1177 -0.5095  0.3482
17893SOL    HW154873   4.640   6.902   5.584  2.4951 -2.2982 -1.3246
17893SOL    HW254874   4.657   6.871   5.731  0.8049  1.2213 -0.2830
17894SOL     OW54875   8.045   2.858   5.480 -0.4127  0.0317 -0.3003
17894SOL    HW154876   7.955   2.826   5.489 -0.1883 -1.2543 -2.0299
17894SOL    HW254877   8.061   2.857   5.385  1.6229 -0.3758  0.0050
17895SOL     OW54878   1.818   4.099   2.302 -0.2933 -0.8262  0.2514
17895SOL    HW154879   1.866   4.080   2.383  1.4561  1.7375 -0.0615
17895SOL    HW254880   1.779   4.186   2.316 -0.2260 -0.4616 -1.5066
17896SOL     OW54881   6.441   5.226   5.039 -0.4606 -0.6771 -0.3541
17896SOL    HW154882   6.530   5.193   5.023 -0.3829 -0.6181 -0.0527
17896SOL    HW254883   6.417   5.190   5.124 -0.8354 -0.9167 -0.5586
17897SOL     OW54884   3.855   6.477   4.119 -0.1246 -0.3250 -0.0632
17897SOL    HW154885   3.919   6.543   4.144 -0.6488  0.4120 -0.6490
17897SOL    HW254886   3.789   6.480   4.188 -0.3153 -0.0033 -0.2573
17898SOL     OW54887   2.376   3.692   4.575 -0.0699 -0.1239 -0.5901
17898SOL    HW154888   2.366   3.777   4.617 -1.7089  0.2390 -1.6297
17898SOL    HW254889   2.345   3.629   4.640  1.1934  0.0337  0.2006
17899SOL     OW54890   8.470   3.322   5.325  0.1668  0.2768  0.5491
17899SOL    HW154891   8.519   3.314   5.407 -0.3854  0.5270  0.9117
17899SOL    HW254892   8.456   3.416   5.314  0.2500  0.2448  0.1596
17900SOL     OW54893   0.910   7.918   5.379 -0.2309 -0.3071 -0.3311
17900SOL    HW154894   0.823   7.911   5.340 -0.8543 -0.1786  0.9970
17900SOL    HW254895   0.921   8.012   5.397  0.3498 -0.2688 -0.8276
17901SOL     OW54896   3.112   8.603   8.368  0.5890 -0.8369  0.4447
17901SOL    HW154897   3.075   8.517   8.383  0.0771 -0.3955  1.8236
17901SOL    HW254898   3.080   8.657   8.441 -0.7099  1.0294 -1.3725
17902SOL     OW54899   1.526   8.523   1.065  0.6545  0.2767 -0.5917
17902SOL    HW154900   1.540   8.429   1.075 -3.7788 -0.4065  2.0161
17902SOL    HW254901   1.553   8.561   1.148 -0.6937  0.7311 -0.3306
17903SOL     OW54902   4.784   3.569   0.551  0.2428 -0.1835  1.5647
17903SOL    HW154903   4.724   3.599   0.483  2.2045  0.3835 -0.0204
17903SOL    HW254904   4.743   3.596   0.634 -1.3182  0.7680  0.5234
17904SOL     OW54905   0.425   5.616   7.536  0.0407  0.7470 -0.1756
17904SOL    HW154906   0.386   5.552   7.476  1.5228  0.2936 -0.6937
17904SOL    HW254907   0.380   5.698   7.516 -1.0204  0.1433 -0.3599
17905SOL     OW54908   5.846   5.745   4.140  0.1106  0.3514  0.1025
17905SOL    HW154909   5.774   5.684   4.128  1.0692 -1.6826  3.4927
17905SOL    HW254910   5.804   5.827   4.165 -1.0912  0.0143 -0.7310
17906SOL     OW54911   6.110   4.823   1.149  0.0692 -0.2301  0.1685
17906SOL    HW154912   6.104   4.737   1.191 -1.7157 -0.2266 -0.0289
17906SOL    HW254913   6.192   4.860   1.182 -0.2810 -1.0576  2.0632
17907SOL     OW54914   6.066   0.983   8.479 -0.1413  0.2877  0.5968
17907SOL    HW154915   5.981   0.984   8.434 -0.0152 -1.2233  0.2723
17907SOL    HW254916   6.047   0.944   8.565  0.5829 -2.4170 -0.3801
17908SOL     OW54917   1.205   1.495   0.494  0.1622 -0.2302  0.2785
17908SOL    HW154918   1.285   1.538   0.462 -0.4763  0.9199  0.1562
17908SOL    HW254919   1.203   1.514   0.588  0.9397 -1.7938  0.6341
17909SOL     OW54920   2.807   2.328   4.941  0.2108  0.5862 -0.7145
17909SOL    HW154921   2.827   2.294   5.028  1.6258 -2.0102 -1.9468
17909SOL    HW254922   2.848   2.415   4.939  0.3857  0.5768  1.0800
17910SOL     OW54923   0.908   7.717   3.573  0.5436  0.3783  0.6651
17910SOL    HW154924   0.982   7.689   3.520 -1.1296 -1.8974 -0.6482
17910SOL    HW254925   0.879   7.799   3.532  1.0861  0.1995 -0.1044
17911SOL     OW54926   5.854   2.164   3.054 -0.0904  0.7517 -0.0153
17911SOL    HW154927   5.822   2.187   2.967 -1.5926  0.2862  0.3918
17911SOL    HW254928   5.800   2.089   3.081  0.3092  0.9223  1.3349
17912SOL     OW54929   5.599   8.286   2.933  0.6870 -0.3470  0.1619
17912SOL    HW154930   5.557   8.200   2.929 -0.0277 -0.0341  0.8471
17912SOL    HW254931   5.612   8.310   2.841 -1.6438  0.0263 -0.1112
17913SOL     OW54932   5.432   3.821   0.620 -0.2662  0.4832  0.3428
17913SOL    HW154933   5.527   3.830   0.616 -0.1750 -0.8427 -1.9686
17913SOL    HW254934   5.411   3.825   0.714  1.9721  1.3396  0.8640
17914SOL     OW54935   5.590   8.348   4.711  0.2662  0.1718  0.6820
17914SOL    HW154936   5.565   8.331   4.620 -0.6407 -2.4122  1.3128
17914SOL    HW254937   5.516   8.395   4.749 -0.1686 -0.3698  0.5192
17915SOL     OW54938   5.670   7.814   4.866  0.2145 -0.3439 -0.0550
17915SOL    HW154939   5.710   7.847   4.785 -1.5867  0.9562 -0.4766
17915SOL    HW254940   5.687   7.720   4.864  2.2183 -0.0195 -0.7463
17916SOL     OW54941   5.890   3.356   2.931 -0.0240 -0.2188  0.6007
17916SOL    HW154942   5.940   3.298   2.874  1.2109  2.3639 -1.1429
17916SOL    HW254943   5.843   3.414   2.871  0.4512  1.9083  2.1734
17917SOL     OW54944   8.436   0.591   5.043 -0.0533  0.3855  0.4845
17917SOL    HW154945   8.385   0.538   4.982 -0.1024  1.2025 -0.2028
17917SOL    HW254946   8.409   0.682   5.025  1.0097  0.7600  0.7053
17918SOL     OW54947   2.039   3.981   1.481  0.0990 -0.1827  0.2850
17918SOL    HW154948   2.002   3.923   1.548 -2.1369  0.6831 -0.1094
17918SOL    HW254949   2.088   4.047   1.530 -0.6304 -0.1627  1.0114
17919SOL     OW54950   2.822   4.039   5.591  0.3763  0.0053  0.2976
17919SOL    HW154951   2.809   4.127   5.558  0.8498 -0.2157 -0.4996
17919SOL    HW254952   2.736   3.997   5.583  0.3348  0.1558 -0.0346
17920SOL     OW54953   7.549   0.332   6.712 -0.3604 -0.5277 -0.4319
17920SOL    HW154954   7.459   0.323   6.745  0.0013 -1.7873  0.2863
17920SOL    HW254955   7.597   0.373   6.784  0.2108 -2.3498  0.2706
17921SOL     OW54956   3.399   1.257   7.506  0.6765 -0.1125 -0.3428
17921SOL    HW154957   3.436   1.345   7.515  1.1464 -0.3774  0.4261
17921SOL    HW254958   3.307   1.272   7.483  1.2896  0.5673 -2.7388
17922SOL     OW54959   7.379   4.841   7.398 -0.5126  0.7237  0.5881
17922SOL    HW154960   7.371   4.803   7.310 -0.6395 -0.1983  0.9837
17922SOL    HW254961   7.467   4.819   7.426 -0.4165  1.1592  0.6377
17923SOL     OW54962   6.633   7.210   4.098 -0.1533  0.2804 -0.4546
17923SOL    HW154963   6.583   7.259   4.162  0.4531 -0.4155  0.5788
17923SOL    HW254964   6.721   7.203   4.135 -0.3362 -1.9967 -0.3028
17924SOL     OW54965   8.232   4.554   3.615 -0.0554  0.5314  0.5180
17924SOL    HW154966   8.171   4.543   3.542  1.2134 -0.2991 -0.4550
17924SOL    HW254967   8.242   4.466   3.652  1.9629  0.2566 -0.5448
17925SOL     OW54968   2.964   8.490   6.181 -0.0025 -0.2040 -0.3885
17925SOL    HW154969   2.979   8.396   6.182  1.9813  0.0449 -1.4980
17925SOL    HW254970   3.042   8.528   6.220 -0.1933  1.0387 -1.1469
17926SOL     OW54971   4.095   7.212   2.722 -0.0330 -0.0625  0.3109
17926SOL    HW154972   4.060   7.298   2.697  0.4320  0.2980  0.8660
17926SOL    HW254973   4.173   7.233   2.774  0.4698 -0.8311 -0.1126
17927SOL     OW54974   6.160   2.739   1.671  0.1827  0.0777 -0.2667
17927SOL    HW154975   6.243   2.693   1.684 -0.4845 -0.8577  1.0432
17927SOL    HW254976   6.162   2.812   1.733  0.3807  0.5819 -0.8600
17928SOL     OW54977   6.872   7.859   2.054  0.1649 -0.5628  0.0407
17928SOL    HW154978   6.853   7.826   1.966 -1.4563 -0.2088  0.2275
17928SOL    HW254979   6.833   7.795   2.113  0.6496 -0.4447  0.4935
17929SOL     OW54980   0.418   0.765   7.858 -0.1078 -0.0928  0.1364
17929SOL    HW154981   0.362   0.754   7.935  0.3099 -1.8262  0.2499
17929SOL    HW254982   0.505   0.738   7.888 -0.1061 -1.6735 -1.1110
17930SOL     OW54983   7.821   4.990   7.972 -0.9559  0.4148 -0.1760
17930SOL    HW154984   7.893   5.023   7.919 -0.3398  0.2344  0.5432
17930SOL    HW254985   7.859   4.973   8.058 -1.7471 -0.1424  0.0777
17931SOL     OW54986   0.557   1.205   0.185 -0.7129 -0.0871  0.3907
17931SOL    HW154987   0.624   1.270   0.163 -1.7036  0.6053 -0.6837
17931SOL    HW254988   0.502   1.250   0.250 -0.2941 -0.5687  1.0934
17932SOL     OW54989   2.205   8.295   2.518 -0.0669 -0.3525  0.7083
17932SOL    HW154990   2.258   8.372   2.498 -1.1526  0.2874  0.2088
17932SOL    HW254991   2.120   8.313   2.477 -1.0335 -0.8485  2.4025
17933SOL     OW54992   6.490   0.999   7.076 -0.1133 -0.5425  0.8315
17933SOL    HW154993   6.452   0.943   7.009 -1.5287 -0.4697  1.5392
17933SOL    HW254994   6.415   1.030   7.127  0.5663  2.2280  0.3161
17934SOL     OW54995   0.155   0.235   5.520  0.1822 -0.3984 -0.6335
17934SOL    HW154996   0.239   0.258   5.561 -1.1307 -1.0364  2.7627
17934SOL    HW254997   0.160   0.140   5.508 -0.4571 -0.6458  0.8103
17935SOL     OW54998   0.265   3.551   2.380  0.4778  0.1292  0.1007
17935SOL    HW154999   0.358   3.572   2.388  0.2750  0.8398  0.7609
17935SOL    HW255000   0.256   3.513   2.293  1.1284  1.5482 -0.6278
17936SOL     OW55001   2.582   4.095   5.101 -0.3059  0.4204  0.8423
17936SOL    HW155002   2.525   4.172   5.096  0.5970  1.0396 -0.2097
17936SOL    HW255003   2.665   4.123   5.062 -0.3073 -1.4070 -0.6286
17937SOL     OW55004   0.363   2.346   1.024  0.0253  0.1972  0.2038
17937SOL    HW155005   0.307   2.391   0.961  0.8470  1.1966  0.1551
17937SOL    HW255006   0.449   2.343   0.982 -0.0797 -1.8233  0.0364
17938SOL     OW55007   8.058   8.101   0.390  0.3116  0.2173  0.0973
17938SOL    HW155008   8.116   8.137   0.457  0.8278 -1.0325  0.3404
17938SOL    HW255009   8.117   8.077   0.318 -0.0493  0.0552 -0.1488
17939SOL     OW55010   0.046   1.804   5.497  0.7689  0.3312  0.8994
17939SOL    HW155011  -0.028   1.799   5.558 -0.5929 -0.5526 -0.7382
17939SOL    HW255012   0.122   1.777   5.549 -0.5300 -1.5810  1.9256
17940SOL     OW55013   3.327   2.306   8.413 -0.2197 -0.0148  0.1266
17940SOL    HW155014   3.262   2.370   8.385 -0.1985  0.5950  1.3875
17940SOL    HW255015   3.276   2.231   8.443 -0.2460 -0.6017 -1.3057
17941SOL     OW55016   2.147   7.788   8.513 -0.2917 -0.3412 -0.3883
17941SOL    HW155017   2.110   7.876   8.522 -0.7753 -0.6073  0.2741
17941SOL    HW255018   2.165   7.780   8.419  2.9868  1.7494 -0.1058
17942SOL     OW55019   1.043   8.530   6.940  1.0974  0.3667  0.1716
17942SOL    HW155020   1.047   8.623   6.919 -2.8305  0.7626  0.4358
17942SOL    HW255021   0.966   8.521   6.996  1.4564 -3.0457  0.3484
17943SOL     OW55022   3.835   5.335   3.445 -0.0071  0.2386  0.1625
17943SOL    HW155023   3.852   5.346   3.538 -1.8950  0.9300  0.4593
17943SOL    HW255024   3.794   5.417   3.417 -1.7602 -0.8658 -0.6941
17944SOL     OW55025   1.404   3.367   3.693  0.8987  0.0673 -0.1410
17944SOL    HW155026   1.347   3.387   3.767  1.7527  1.9742  0.0572
17944SOL    HW255027   1.445   3.284   3.717 -0.6003 -0.5507  0.4149
17945SOL     OW55028   5.538   2.383   5.402 -0.0247  0.6481  0.2483
17945SOL    HW155029   5.556   2.363   5.310 -1.1017  2.4315 -0.3995
17945SOL    HW255030   5.624   2.392   5.442  0.4624  0.2356 -0.6866
17946SOL     OW55031   2.435   6.893   7.197  0.0714 -0.1026 -0.0031
17946SOL    HW155032   2.524   6.858   7.196 -0.2579 -0.9513 -0.5166
17946SOL    HW255033   2.399   6.863   7.281  1.5632  3.7032  2.2280
17947SOL     OW55034   2.933   0.270   5.390 -0.1501 -0.2711  0.4845
17947SOL    HW155035   2.955   0.248   5.481  1.4024 -2.0629 -0.2394
17947SOL    HW255036   2.839   0.289   5.392  0.1141  1.1587  2.6684
17948SOL     OW55037   0.068   3.266   7.559 -0.0451  0.3408  0.1148
17948SOL    HW155038   0.130   3.267   7.632 -0.4141  1.0514  0.4285
17948SOL    HW255039  -0.012   3.304   7.595 -1.5230 -2.8020  0.4485
17949SOL     OW55040   8.398   2.788   8.115  0.5026 -0.3749 -0.5267
17949SOL    HW155041   8.411   2.882   8.129 -0.0445 -0.3181 -0.3473
17949SOL    HW255042   8.426   2.747   8.197 -2.9829 -0.0186  1.0570
17950SOL     OW55043   6.497   4.256   0.732  0.4394  0.3180 -0.0161
17950SOL    HW155044   6.583   4.296   0.738  0.2382  0.9005 -0.8726
17950SOL    HW255045   6.514   4.162   0.730  0.9141  0.3221  2.0068
17951SOL     OW55046   4.811   6.708   0.119  0.0972 -0.4766 -0.0119
17951SOL    HW155047   4.886   6.716   0.178 -0.0858 -1.4129  0.3674
17951SOL    HW255048   4.826   6.775   0.052  0.1009  0.9098  1.3013
17952SOL     OW55049   2.413   6.027   0.465 -0.5689 -0.2582 -0.3890
17952SOL    HW155050   2.335   5.990   0.424 -0.6762 -0.7456  0.2327
17952SOL    HW255051   2.476   5.955   0.465  0.2345  0.4025 -1.7552
17953SOL     OW55052   7.264   1.945   4.919  0.1221  0.2033  0.0842
17953SOL    HW155053   7.233   1.854   4.926  0.2918  0.1026 -0.3926
17953SOL    HW255054   7.354   1.936   4.887 -0.1787  0.5652 -0.9112
17954SOL     OW55055   1.513   1.809   8.089 -0.6017  0.5166 -0.2909
17954SOL    HW155056   1.508   1.857   8.007  0.5544  0.8479 -0.1872
17954SOL    HW255057   1.482   1.721   8.068 -0.4978  0.6537 -1.0358
17955SOL     OW55058   7.159   3.031   7.762  0.0944  0.2176  0.0076
17955SOL    HW155059   7.073   3.027   7.803 -0.4549 -1.1012 -1.1755
17955SOL    HW255060   7.212   3.085   7.821 -0.6888 -1.3980  2.3454
17956SOL     OW55061   2.436   6.446   8.430 -0.0790 -0.4234 -0.5692
17956SOL    HW155062   2.453   6.482   8.518 -0.3706  0.4461 -0.8510
17956SOL    HW255063   2.522   6.420   8.398  0.0756 -0.4483 -0.1466
17957SOL     OW55064   7.537   2.654   3.978  0.1306 -0.0222 -0.5092
17957SOL    HW155065   7.458   2.708   3.970  0.4968  1.5715  3.7581
17957SOL    HW255066   7.609   2.716   3.968  0.6107 -0.0984  1.8906
17958SOL     OW55067   4.230   0.290   5.159 -0.0166  0.5994 -0.1213
17958SOL    HW155068   4.198   0.200   5.174 -0.7914  0.6556 -1.3137
17958SOL    HW255069   4.161   0.345   5.195  0.1437  0.7173  0.0022
17959SOL     OW55070   2.819   8.040   0.563  0.2273 -0.2030  0.5683
17959SOL    HW155071   2.907   8.019   0.592  0.5836  1.1467  0.5381
17959SOL    HW255072   2.797   8.121   0.609 -1.0434 -0.5735  0.6572
17960SOL     OW55073   2.372   6.176   8.369  0.0353 -0.3001  0.3183
17960SOL    HW155074   2.390   6.270   8.379  2.4451 -0.7054  0.5172
17960SOL    HW255075   2.377   6.161   8.275 -1.1667 -0.1018  0.2180
17961SOL     OW55076   0.083   6.707   3.476 -0.0338 -0.0839 -0.6493
17961SOL    HW155077   0.031   6.787   3.475 -1.6142 -1.0742 -1.0087
17961SOL    HW255078   0.025   6.640   3.440  1.0544 -1.5037  0.1283
17962SOL     OW55079   0.854   1.071   5.343  0.0615 -0.1257  0.0461
17962SOL    HW155080   0.779   1.122   5.314  1.6198  1.2773 -1.8304
17962SOL    HW255081   0.818   0.985   5.364 -2.2747  0.9589  0.8400
17963SOL     OW55082   2.572   7.532   5.445  0.2083 -0.0580  0.5750
17963SOL    HW155083   2.541   7.610   5.400  0.4707  0.1638  0.7763
17963SOL    HW255084   2.655   7.511   5.402  0.5270  0.2321  1.0361
17964SOL     OW55085   7.363   6.899   8.336 -0.7904  0.2376  0.5304
17964SOL    HW155086   7.323   6.893   8.249  0.7511  0.2792 -0.2048
17964SOL    HW255087   7.293   6.873   8.396 -1.4683 -1.1938 -0.8058
17965SOL     OW55088   3.903   0.254   8.419 -0.7236  0.3536 -0.3655
17965SOL    HW155089   3.975   0.298   8.373 -0.8096  4.0129  2.4973
17965SOL    HW255090   3.824   0.292   8.382 -1.0142 -0.4042 -0.5424
17966SOL     OW55091   5.624   5.958   3.524  0.0832 -0.2162 -0.6989
17966SOL    HW155092   5.618   6.051   3.502 -1.0707 -0.2302 -0.5103
17966SOL    HW255093   5.714   5.946   3.554  0.1093  0.9551 -0.2523
17967SOL     OW55094   6.317   6.234   2.148 -0.0276  0.2335  0.1442
17967SOL    HW155095   6.239   6.287   2.132  0.4878  0.8561 -0.3479
17967SOL    HW255096   6.362   6.278   2.220 -1.3230 -1.4583  2.0975
17968SOL     OW55097   2.809   6.871   2.722 -0.6772  0.7721 -0.2247
17968SOL    HW155098   2.726   6.916   2.738 -2.0735 -1.4437 -0.8097
17968SOL    HW255099   2.820   6.873   2.627 -1.5524 -1.3546 -0.4084
17969SOL     OW55100   0.246   5.521   7.967 -0.1047 -0.0564  0.9390
17969SOL    HW155101   0.334   5.516   7.931  0.5257  0.3906  2.3502
17969SOL    HW255102   0.235   5.439   8.015  0.4714  0.8605  2.7250
17970SOL     OW55103   6.295   0.965   6.168 -0.0598 -0.2922  0.0110
17970SOL    HW155104   6.368   0.990   6.224 -0.3340 -1.0255  0.7098
17970SOL    HW255105   6.237   1.041   6.169 -0.1127 -0.3381  0.8183
17971SOL     OW55106   1.734   1.148   1.683 -0.2099 -0.3353 -0.7079
17971SOL    HW155107   1.812   1.132   1.735 -0.7434  2.4326  1.1804
17971SOL    HW255108   1.745   1.237   1.650 -2.8624  0.5218  0.3903
17972SOL     OW55109   7.645   7.192   1.769  0.4453 -0.4571  0.2798
17972SOL    HW155110   7.711   7.237   1.716 -0.0845 -0.5168 -0.4442
17972SOL    HW255111   7.646   7.102   1.738  0.5509 -0.6336  0.7891
17973SOL     OW55112   0.105   6.250   7.848 -0.2346 -0.2533 -0.1257
17973SOL    HW155113   0.081   6.242   7.755 -0.4049 -2.5755  0.0448
17973SOL    HW255114   0.133   6.341   7.858 -2.3545  0.6995 -1.9220
17974SOL     OW55115   4.168   1.692   7.188  0.4992 -0.5271 -0.1745
17974SOL    HW155116   4.191   1.745   7.264 -0.7984 -0.2484  0.0501
17974SOL    HW255117   4.108   1.626   7.222 -0.2714 -0.2640 -0.9829
17975SOL     OW55118   2.398   5.412   6.579 -0.6398 -0.1743  0.5136
17975SOL    HW155119   2.336   5.484   6.573 -1.4218 -0.9491 -2.9160
17975SOL    HW255120   2.354   5.346   6.633 -3.1353 -0.8533 -2.1246
17976SOL     OW55121   0.634   4.954   3.222 -0.2393 -0.6279  0.0927
17976SOL    HW155122   0.689   5.025   3.190  1.0104 -1.4249  0.4106
17976SOL    HW255123   0.545   4.979   3.196  0.4103  0.0345 -1.6565
17977SOL     OW55124   7.281   2.925   6.057 -0.5187 -0.2546  0.0546
17977SOL    HW155125   7.327   2.866   6.117 -0.9772 -0.8883 -0.2068
17977SOL    HW255126   7.197   2.883   6.041 -0.6073  0.1613 -0.6300
17978SOL     OW55127   1.087   1.596   0.246 -0.1992  0.2340  0.3931
17978SOL    HW155128   1.132   1.564   0.324  0.9386  1.5187  0.3002
17978SOL    HW255129   1.104   1.690   0.245  0.2685  0.1727 -1.6838
17979SOL     OW55130   1.798   0.053   3.889  0.0117  0.1527 -0.4019
17979SOL    HW155131   1.862   0.123   3.903 -0.8791  0.7982  0.5419
17979SOL    HW255132   1.728   0.071   3.951 -0.1732 -1.6784 -0.0229
17980SOL     OW55133   1.579   6.476   0.848 -0.0989  0.4058 -0.8578
17980SOL    HW155134   1.541   6.389   0.844 -2.4989  1.4266 -3.2895
17980SOL    HW255135   1.553   6.510   0.934 -0.2723 -0.7605 -0.4297
17981SOL     OW55136   6.541   4.999   3.293  0.2705 -0.1472 -0.4106
17981SOL    HW155137   6.596   5.044   3.357 -0.0690 -0.7088  0.2929
17981SOL    HW255138   6.600   4.973   3.223  0.6027  0.7078 -0.4556
17982SOL     OW55139   7.505   8.075   4.787 -0.1415  0.1931  0.3425
17982SOL    HW155140   7.463   8.042   4.708  0.1180  2.3892 -0.7812
17982SOL    HW255141   7.432   8.086   4.849 -0.5599 -0.1283 -0.0794
17983SOL     OW55142   1.355   7.497   4.289  0.5567 -0.0814 -0.2322
17983SOL    HW155143   1.271   7.475   4.329  0.3095 -1.3877 -1.4053
17983SOL    HW255144   1.395   7.558   4.351 -1.8410  1.7347 -0.2964
17984SOL     OW55145   5.077   6.777   4.625  0.1538 -0.0253 -0.7992
17984SOL    HW155146   5.106   6.862   4.591 -1.6213  0.4193 -1.2858
17984SOL    HW255147   5.019   6.742   4.558  0.4670 -1.4239 -0.3776
17985SOL     OW55148   7.699   5.574   1.561 -0.1426  0.0362 -0.4830
17985SOL    HW155149   7.651   5.555   1.480 -1.1895  0.4066  0.0247
17985SOL    HW255150   7.651   5.525   1.629  0.8895 -0.4994 -0.1242
17986SOL     OW55151   7.377   5.197   6.695 -0.4159  0.9198 -0.7743
17986SOL    HW155152   7.287   5.164   6.698  0.1589 -0.6959 -0.6196
17986SOL    HW255153   7.413   5.159   6.615  0.6265  0.1928  0.0219
17987SOL     OW55154   7.713   8.345   3.688 -0.0088  0.3041  0.3177
17987SOL    HW155155   7.770   8.279   3.649 -0.0416  1.1650 -1.2529
17987SOL    HW255156   7.769   8.393   3.748  0.2255 -0.5838  0.8207
17988SOL     OW55157   1.210   5.454   5.658  0.5294 -0.1535  0.3456
17988SOL    HW155158   1.216   5.454   5.562 -2.2892 -1.2534  0.0513
17988SOL    HW255159   1.298   5.475   5.688  0.8113  3.6614 -2.4764
17989SOL     OW55160   0.243   5.009   1.079 -0.2814 -0.1315  0.5537
17989SOL    HW155161   0.175   5.023   1.013  0.5352 -1.8106 -0.6987
17989SOL    HW255162   0.195   5.004   1.162 -1.6724 -1.0544 -0.2615
17990SOL     OW55163   1.456   2.680   5.363 -0.1315  0.1487 -1.0244
17990SOL    HW155164   1.499   2.758   5.399  0.4821  0.5784 -2.5960
17990SOL    HW255165   1.369   2.711   5.338  0.3439  0.5373 -2.2730
17991SOL     OW55166   3.143   8.184   8.181 -0.2383 -0.4691  0.1601
17991SOL    HW155167   3.080   8.238   8.134  0.7878 -0.8098 -1.7431
17991SOL    HW255168   3.116   8.094   8.162  0.3576 -0.6101 -0.0515
17992SOL     OW55169   8.156   3.269   0.137 -0.6974 -0.0050 -0.0984
17992SOL    HW155170   8.208   3.300   0.211 -0.9788  0.0654  0.0727
17992SOL    HW255171   8.164   3.173   0.140  0.5118  0.0620 -0.8755
17993SOL     OW55172   0.050   1.247   4.482  0.1410 -0.3384  0.9866
17993SOL    HW155173   0.084   1.296   4.557 -2.2429  0.1319  1.8426
17993SOL    HW255174   0.049   1.156   4.512  4.5928 -1.2007 -0.6115
17994SOL     OW55175   2.718   7.511   4.456 -0.0349  0.1738 -0.0816
17994SOL    HW155176   2.766   7.514   4.374  1.3495 -2.3040  0.5138
17994SOL    HW255177   2.698   7.602   4.476 -1.1427  0.8235 -3.4972
17995SOL     OW55178   7.558   4.028   7.546  0.2880  0.4517 -0.7378
17995SOL    HW155179   7.572   3.946   7.595 -0.1753  0.4139 -0.6629
17995SOL    HW255180   7.476   4.014   7.498 -0.4971  1.3368  0.2801
17996SOL     OW55181   6.002   2.582   2.573 -0.7357  0.1466  0.2108
17996SOL    HW155182   5.968   2.633   2.646  0.4154  0.0346  0.8516
17996SOL    HW255183   5.994   2.640   2.497  0.6170  1.3329  0.9367
17997SOL     OW55184   0.613   4.894   7.305 -0.6894  0.2988 -0.7827
17997SOL    HW155185   0.671   4.955   7.258 -0.4371 -0.4133 -1.4161
17997SOL    HW255186   0.612   4.926   7.395 -1.0997  1.6359 -1.2432
17998SOL     OW55187   2.764   3.786   0.743 -0.3113 -0.8931  0.1819
17998SOL    HW155188   2.853   3.804   0.771 -0.5704 -0.5856  0.8267
17998SOL    HW255189   2.749   3.695   0.768 -0.6136 -0.5593  1.2787
17999SOL     OW55190   0.349   1.647   5.314 -0.2277  0.1659  0.5620
17999SOL    HW155191   0.333   1.556   5.289 -0.5123  0.0379  1.1897
17999SOL    HW255192   0.297   1.698   5.252 -0.1550 -0.1074  0.2757
18000SOL     OW55193   2.882   4.003   5.854 -0.0267  0.0175 -0.1576
18000SOL    HW155194   2.978   4.004   5.863  0.0624  0.0707 -0.9843
18000SOL    HW255195   2.867   4.031   5.763 -0.7765 -1.3734 -0.4784
18001SOL     OW55196   2.398   5.505   1.168 -0.1170  0.0972  0.1359
18001SOL    HW155197   2.491   5.525   1.174 -0.3413  1.1239  0.3166
18001SOL    HW255198   2.382   5.443   1.239  0.3715  0.0889  0.2441
18002SOL     OW55199   4.356   0.063   3.471  0.3482  0.4864  0.1492
18002SOL    HW155200   4.274   0.044   3.516 -1.6430  2.5886 -2.3359
18002SOL    HW255201   4.346   0.152   3.438  3.0219  0.2670 -1.6026
18003SOL     OW55202   8.160   4.358   1.159  0.0792 -0.0886 -0.4751
18003SOL    HW155203   8.112   4.424   1.209 -0.6138 -0.4359 -0.6650
18003SOL    HW255204   8.120   4.362   1.071  0.6013 -0.1760 -0.7189
18004SOL     OW55205   8.268   2.910   6.088  0.1845 -0.2082 -0.5196
18004SOL    HW155206   8.202   2.980   6.090 -0.6313 -0.8414 -2.6425
18004SOL    HW255207   8.327   2.936   6.017 -0.0016 -1.5330 -1.1841
18005SOL     OW55208   2.517   5.167   6.439 -0.1563 -0.3310 -0.2598
18005SOL    HW155209   2.480   5.134   6.521 -2.5470  0.1412 -1.0545
18005SOL    HW255210   2.461   5.242   6.417  1.9246  1.0581 -1.1206
18006SOL     OW55211   5.387   5.749   2.556 -0.0026 -0.0006 -0.4861
18006SOL    HW155212   5.478   5.741   2.529  0.4109  1.4420  0.4005
18006SOL    HW255213   5.376   5.841   2.580 -1.3688 -0.3985  0.5621
18007SOL     OW55214   0.395   0.274   6.373 -0.2655  0.1430  0.3078
18007SOL    HW155215   0.305   0.280   6.341  0.3623  0.6206 -1.4691
18007SOL    HW255216   0.394   0.323   6.455 -1.1944  1.9503 -0.7271
18008SOL     OW55217   2.091   0.666   8.118 -0.2763 -0.4466 -0.0086
18008SOL    HW155218   2.008   0.705   8.090 -0.2732 -1.1417 -1.0152
18008SOL    HW255219   2.133   0.638   8.037  1.8222  1.5658  0.2650
18009SOL     OW55220   3.527   8.013   1.669  0.3478 -0.0726  0.2380
18009SOL    HW155221   3.595   8.000   1.604  0.7440 -0.7815  0.7773
18009SOL    HW255222   3.453   7.960   1.638 -0.4426  1.6682 -0.9973
18010SOL     OW55223   0.230   5.720   0.108  0.2678 -0.4550 -0.3629
18010SOL    HW155224   0.246   5.780   0.035 -2.2597  1.6566  0.6201
18010SOL    HW255225   0.204   5.638   0.067 -0.2369  0.4219 -1.8663
18011SOL     OW55226   0.448   2.167   8.544  0.1481 -0.2279  0.5818
18011SOL    HW155227   0.470   2.235   8.608 -1.7351  1.5996 -0.5846
18011SOL    HW255228   0.353   2.159   8.550  0.3184 -2.8008  0.6464
18012SOL     OW55229   1.829   5.683   6.399  0.3573 -0.0485  0.0276
18012SOL    HW155230   1.823   5.688   6.494  2.4648  1.1576  0.1649
18012SOL    HW255231   1.876   5.762   6.373 -1.0736  0.1701 -2.1410
18013SOL     OW55232   2.777   3.203   3.120  0.2062  0.2882  0.3939
18013SOL    HW155233   2.862   3.202   3.075  0.2141  2.9351  0.1784
18013SOL    HW255234   2.714   3.224   3.050 -0.4929 -0.5293  0.7606
18014SOL     OW55235   2.123   5.101   7.386  0.0102 -0.1375  0.2358
18014SOL    HW155236   2.200   5.090   7.330  0.5963  0.5312  0.8860
18014SOL    HW255237   2.066   5.161   7.339 -0.5259 -1.2847 -0.6376
18015SOL     OW55238   3.369   5.395   7.427 -0.0559  0.4142  0.3679
18015SOL    HW155239   3.303   5.338   7.466 -0.4025  1.0045  0.6651
18015SOL    HW255240   3.410   5.342   7.359  1.0385 -0.9116  1.9741
18016SOL     OW55241   3.277   7.141   8.199  0.1141 -0.3952 -0.7078
18016SOL    HW155242   3.370   7.160   8.210 -0.0641 -0.0940  0.3703
18016SOL    HW255243   3.264   7.056   8.241 -0.3010  0.0727  0.1248
18017SOL     OW55244   7.839   6.494   4.396  0.1447  0.4707  0.6187
18017SOL    HW155245   7.834   6.550   4.474 -0.8514  0.0121  0.9096
18017SOL    HW255246   7.932   6.476   4.385  0.3860  1.3544  1.1199
18018SOL     OW55247   8.254   8.591   5.212 -0.4406  0.2332 -0.1275
18018SOL    HW155248   8.271   8.595   5.307 -0.8031 -0.8997  0.0003
18018SOL    HW255249   8.337   8.562   5.175  0.2438  2.3789 -0.3666
18019SOL     OW55250   5.290   5.853   0.332 -0.6235  0.3101  0.0459
18019SOL    HW155251   5.284   5.847   0.237  2.3356 -1.9676 -0.1464
18019SOL    HW255252   5.315   5.944   0.349 -0.9335  0.6802 -1.3588
18020SOL     OW55253   3.503   5.427   6.176  0.5079 -0.1000  0.4590
18020SOL    HW155254   3.539   5.515   6.169  0.2379 -0.0683 -0.8422
18020SOL    HW255255   3.567   5.372   6.131  0.4800 -0.5143  0.9166
18021SOL     OW55256   2.278   1.785   5.714 -0.2085 -0.3199  0.1527
18021SOL    HW155257   2.318   1.817   5.795 -0.1511  0.0216 -0.0096
18021SOL    HW255258   2.217   1.717   5.743  0.2785 -0.6474  0.4277
18022SOL     OW55259   7.419   2.928   0.464 -0.1089  0.2409 -0.1137
18022SOL    HW155260   7.513   2.941   0.471 -0.0933 -0.5438  1.8099
18022SOL    HW255261   7.409   2.857   0.400  0.5636  0.7176 -0.7545
18023SOL     OW55262   5.569   0.927   8.337 -0.5309  0.0683 -0.2533
18023SOL    HW155263   5.534   0.842   8.363 -0.0860  0.4564  1.8683
18023SOL    HW255264   5.493   0.978   8.310 -1.1962 -0.1413  1.1412
18024SOL     OW55265   2.447   0.413   5.650  0.1727 -0.1467 -0.1274
18024SOL    HW155266   2.471   0.346   5.714 -1.1725  0.4398  1.0417
18024SOL    HW255267   2.516   0.480   5.659 -0.1441  0.0553  0.9288
18025SOL     OW55268   1.352   5.652   0.260 -0.3267  0.5935 -0.0156
18025SOL    HW155269   1.354   5.571   0.310  0.1089  0.3888 -0.3581
18025SOL    HW255270   1.379   5.719   0.323  0.6579  0.2732 -0.0866
18026SOL     OW55271   0.353   6.051   7.279 -0.0951 -0.0240 -0.0274
18026SOL    HW155272   0.383   5.960   7.271 -0.8214 -0.2015 -0.7672
18026SOL    HW255273   0.279   6.047   7.339  2.1291  0.6131  3.0389
18027SOL     OW55274   4.391   3.663   1.172 -0.3903  0.1717  0.0464
18027SOL    HW155275   4.369   3.756   1.178 -0.2960  0.1626  0.6898
18027SOL    HW255276   4.379   3.641   1.080 -0.7339  0.7426 -0.0523
18028SOL     OW55277   6.764   4.835   8.497 -0.9479  0.6607 -0.1141
18028SOL    HW155278   6.766   4.798   8.585  0.3028 -1.8462 -1.0772
18028SOL    HW255279   6.712   4.773   8.447  1.4177 -0.0692 -1.8829
18029SOL     OW55280   2.225   7.107   6.587  0.5280 -0.1053  0.3174
18029SOL    HW155281   2.157   7.059   6.540  0.2380  0.7899 -0.1955
18029SOL    HW255282   2.222   7.072   6.676 -0.0271 -0.6721  0.0764
18030SOL     OW55283   8.528   7.687   4.183  0.0375  0.3991  0.0725
18030SOL    HW155284   8.611   7.696   4.137  1.3652  1.2796  2.4682
18030SOL    HW255285   8.513   7.773   4.222 -1.1715 -0.2083  0.9923
18031SOL     OW55286   1.180   6.279   6.333  0.0231  0.0643 -0.5349
18031SOL    HW155287   1.185   6.185   6.351 -0.4620  0.2335  0.6023
18031SOL    HW255288   1.108   6.310   6.388  2.2119  1.6432  1.6707
18032SOL     OW55289   7.187   1.883   7.181 -0.3387 -0.6007 -0.6767
18032SOL    HW155290   7.105   1.851   7.144 -0.5268 -0.9207  0.0051
18032SOL    HW255291   7.209   1.820   7.249 -0.0195 -0.0149 -0.2225
18033SOL     OW55292   5.075   6.707   0.310  0.3263  0.0420 -0.1230
18033SOL    HW155293   5.031   6.679   0.391  1.7693  0.2071  0.7557
18033SOL    HW255294   5.150   6.648   0.302  0.6091  0.4981 -0.9551
18034SOL     OW55295   3.800   6.184   2.600 -0.3688  0.3188  0.9066
18034SOL    HW155296   3.787   6.162   2.693  1.4433 -1.4517  0.8120
18034SOL    HW255297   3.894   6.175   2.587 -0.6035  0.5085 -1.1260
18035SOL     OW55298   6.630   8.592   2.979  0.2345  0.0084 -0.1982
18035SOL    HW155299   6.655   8.683   2.960 -0.2037  0.3028  0.5855
18035SOL    HW255300   6.581   8.598   3.061  0.6892 -1.0066  0.1599
18036SOL     OW55301   8.435   3.187   0.633 -0.3357 -0.1625 -0.1390
18036SOL    HW155302   8.347   3.188   0.670 -0.9895  2.4461 -1.5029
18036SOL    HW255303   8.488   3.239   0.694 -0.6275  1.2629 -1.0448
18037SOL     OW55304   5.817   1.301   3.427 -0.0321  0.1513 -0.1102
18037SOL    HW155305   5.856   1.284   3.341  0.0122  1.7943 -0.4529
18037SOL    HW255306   5.883   1.273   3.490  1.6144  2.4404 -0.6722
18038SOL     OW55307   0.967   3.651   4.601 -0.4555 -0.6042  0.3273
18038SOL    HW155308   1.032   3.710   4.640 -0.5104  0.5096 -1.1647
18038SOL    HW255309   0.944   3.591   4.672  0.9485  0.0251  1.3856
18039SOL     OW55310   2.938   3.786   5.631 -0.0056  0.3924  0.4266
18039SOL    HW155311   2.868   3.726   5.604  1.4764  0.0506 -3.2609
18039SOL    HW255312   2.896   3.872   5.632 -1.0007 -0.0827  0.6232
18040SOL     OW55313   3.644   4.239   2.699 -0.0353  0.2177  0.0065
18040SOL    HW155314   3.609   4.298   2.633 -0.2565  0.3456  0.2358
18040SOL    HW255315   3.593   4.158   2.689 -1.0991  0.7359  0.9955
18041SOL     OW55316   4.590   2.296   6.928  0.3416 -0.3507 -0.2314
18041SOL    HW155317   4.584   2.325   7.019 -0.2467 -1.6921  0.1831
18041SOL    HW255318   4.504   2.315   6.890 -0.4866 -2.5773  0.3967
18042SOL     OW55319   6.527   1.431   6.015  0.0259 -0.6551  0.0761
18042SOL    HW155320   6.521   1.515   6.060 -0.7210  0.8734 -2.6661
18042SOL    HW255321   6.614   1.431   5.975  0.6193 -1.9223  1.2663
18043SOL     OW55322   4.011   0.652   8.254 -0.2477 -0.0985  0.3844
18043SOL    HW155323   4.034   0.560   8.268 -0.4917 -0.3515 -0.7692
18043SOL    HW255324   4.088   0.701   8.282 -0.3189 -0.5994  1.5415
18044SOL     OW55325   0.066   2.307   8.060 -0.0021 -0.3560 -0.2213
18044SOL    HW155326   0.023   2.231   8.023 -0.1212 -0.7536  0.7115
18044SOL    HW255327   0.032   2.313   8.150  0.6501  0.2804 -0.0047
18045SOL     OW55328   2.609   2.425   1.773  0.4622 -0.0990  0.3488
18045SOL    HW155329   2.631   2.490   1.705  0.1403  0.1158  0.4464
18045SOL    HW255330   2.590   2.478   1.851 -0.3744 -0.2755  0.2716
18046SOL     OW55331   1.758   7.045   3.531 -0.1825  0.3531  0.6029
18046SOL    HW155332   1.740   6.965   3.482  0.0484  0.8312 -0.2705
18046SOL    HW255333   1.821   7.018   3.598  1.8305  0.2660 -1.2058
18047SOL     OW55334   0.527   0.634   6.404  0.1470  0.7397  0.4875
18047SOL    HW155335   0.597   0.578   6.372  0.4275  2.2666 -1.8984
18047SOL    HW255336   0.452   0.612   6.348 -0.5873  0.7450  1.4491
18048SOL     OW55337   1.053   8.238   6.377  0.4931 -0.3154 -0.0171
18048SOL    HW155338   1.016   8.322   6.404  0.9817 -0.2107  0.3296
18048SOL    HW255339   1.002   8.172   6.424  0.5967 -0.1825  0.2789
18049SOL     OW55340   5.850   5.195   1.131 -0.4075  0.7543  0.3635
18049SOL    HW155341   5.930   5.247   1.135 -0.2647  0.6060 -0.4645
18049SOL    HW255342   5.829   5.177   1.222  1.5690 -0.8416  0.5736
18050SOL     OW55343   8.103   1.161   0.870 -0.0202 -0.3164 -0.1879
18050SOL    HW155344   8.090   1.255   0.859  1.9108  0.0235  0.1602
18050SOL    HW255345   8.050   1.139   0.948 -1.2570  0.2520 -0.8335
18051SOL     OW55346   3.940   7.485   6.131  0.1313  0.5532 -0.5347
18051SOL    HW155347   3.967   7.411   6.076 -0.1296  0.9650 -1.2331
18051SOL    HW255348   3.845   7.489   6.120  0.0692  0.5921  0.0122
18052SOL     OW55349   0.601   3.169   7.086  0.3519 -0.1906 -0.0061
18052SOL    HW155350   0.623   3.078   7.104  0.2661 -0.2595 -0.2489
18052SOL    HW255351   0.684   3.207   7.055  1.0341  0.4292  2.3634
18053SOL     OW55352   7.372   1.914   7.473  0.0840  0.4757 -0.2014
18053SOL    HW155353   7.334   1.998   7.496 -0.0700  0.6382 -1.0279
18053SOL    HW255354   7.464   1.933   7.456  0.4680  0.1672  1.2998
18054SOL     OW55355   6.464   0.950   4.031  0.1319  1.0378 -0.2100
18054SOL    HW155356   6.494   0.931   4.120  1.4362  0.2004 -0.7985
18054SOL    HW255357   6.475   0.867   3.984  0.2438  1.6784 -1.3551
18055SOL     OW55358   4.780   2.000   2.309  0.2034  0.2959 -0.0476
18055SOL    HW155359   4.718   1.942   2.265  0.3772  0.0813 -0.0121
18055SOL    HW255360   4.771   2.084   2.263 -0.4193  0.3916  0.2343
18056SOL     OW55361   8.173   6.741   3.823 -0.2529  0.1585 -0.0397
18056SOL    HW155362   8.121   6.661   3.820  2.3128 -1.6476  0.4324
18056SOL    HW255363   8.113   6.810   3.796 -2.6514 -1.8628 -0.1846
18057SOL     OW55364   7.010   4.786   3.117 -0.2579 -1.0439  0.0631
18057SOL    HW155365   7.072   4.732   3.068  0.3232 -1.8378  1.6028
18057SOL    HW255366   7.028   4.766   3.209 -0.2618  1.5029  0.7089
18058SOL     OW55367   7.885   2.841   4.585  0.2953  0.0425  0.2665
18058SOL    HW155368   7.934   2.891   4.651  2.0281 -1.2926  0.0359
18058SOL    HW255369   7.893   2.892   4.505 -0.3180  0.7684  0.6472
18059SOL     OW55370   0.668   4.630   1.842  0.2875 -0.2301 -0.6434
18059SOL    HW155371   0.669   4.580   1.923  1.4373 -0.2745 -0.6620
18059SOL    HW255372   0.761   4.648   1.824  0.0019  0.4185 -1.5468
18060SOL     OW55373   0.770   4.380   8.304  0.3648 -0.4732 -0.4473
18060SOL    HW155374   0.724   4.454   8.267 -1.7438 -0.5569  1.7555
18060SOL    HW255375   0.854   4.416   8.334  0.9293  0.1459 -2.5955
18061SOL     OW55376   0.937   6.817   3.745  0.1901  0.1540  0.6175
18061SOL    HW155377   0.855   6.768   3.733 -0.1645  0.4445  1.6742
18061SOL    HW255378   0.986   6.804   3.664 -0.7728 -0.2866  0.0928
18062SOL     OW55379   6.859   6.692   4.862  0.1135  0.2290  0.6755
18062SOL    HW155380   6.852   6.744   4.942  1.2762 -0.6628  1.3980
18062SOL    HW255381   6.813   6.611   4.881 -1.2464  0.7566 -0.2620
18063SOL     OW55382   4.851   4.795   0.441  0.4139 -0.0042 -0.1266
18063SOL    HW155383   4.794   4.803   0.364  0.4520 -2.1724 -0.4414
18063SOL    HW255384   4.940   4.801   0.406  0.4167  0.5552 -0.0286
18064SOL     OW55385   2.759   1.007   1.308 -0.1059 -0.4248 -0.3715
18064SOL    HW155386   2.766   0.927   1.360  1.5710 -0.7039 -0.9577
18064SOL    HW255387   2.788   1.077   1.367  1.1688 -0.6568 -0.6790
18065SOL     OW55388   6.866   6.900   3.798 -0.2625 -0.0861  0.0417
18065SOL    HW155389   6.956   6.910   3.828  0.8761  0.9580 -3.2661
18065SOL    HW255390   6.853   6.974   3.738 -2.0404 -2.1733 -2.3520
18066SOL     OW55391   6.808   6.027   0.236 -0.1739 -0.0942 -0.0467
18066SOL    HW155392   6.901   6.052   0.241 -0.4594  1.2601 -1.0228
18066SOL    HW255393   6.770   6.064   0.316  0.1534 -0.8053  0.4449
18067SOL     OW55394   0.706   1.273   6.824 -0.0884 -0.0365 -0.3520
18067SOL    HW155395   0.772   1.338   6.800 -0.3394  0.2995 -0.1380
18067SOL    HW255396   0.756   1.192   6.835  0.6379  0.6256  1.8441
18068SOL     OW55397   1.230   0.425   6.318  0.2837 -0.3984 -0.2209
18068SOL    HW155398   1.304   0.484   6.333  0.3196 -0.5746  0.3444
18068SOL    HW255399   1.207   0.437   6.226  2.1808 -1.6648 -0.9430
18069SOL     OW55400   6.996   5.137   7.053  0.1655 -0.1141  0.6109
18069SOL    HW155401   6.907   5.113   7.029  0.8749 -0.6433 -1.7451
18069SOL    HW255402   6.985   5.197   7.127 -2.1129 -0.2925  0.5007
18070SOL     OW55403   3.087   1.670   0.707 -0.1446  0.3490  0.0847
18070SOL    HW155404   3.121   1.589   0.669  0.3952  0.6160 -0.0018
18070SOL    HW255405   3.037   1.641   0.783  0.9594  0.0193  0.6889
18071SOL     OW55406   1.756   4.360   1.128  0.3330  0.2578 -0.0333
18071SOL    HW155407   1.661   4.366   1.116  0.0712  0.1840  1.8165
18071SOL    HW255408   1.773   4.266   1.140  0.5128  0.3567  0.5139
18072SOL     OW55409   8.070   4.784   1.226 -0.0547  0.0574  0.0186
18072SOL    HW155410   8.042   4.836   1.151 -0.7488  0.2487  0.4082
18072SOL    HW255411   8.032   4.827   1.302  0.6446 -0.1307  0.4928
18073SOL     OW55412   6.338   6.219   3.749 -0.4078 -0.1782 -0.7870
18073SOL    HW155413   6.382   6.291   3.794 -0.2333 -0.4730 -0.4791
18073SOL    HW255414   6.405   6.150   3.743 -0.9887 -0.8507  0.2063
18074SOL     OW55415   2.752   7.499   0.595  0.1700  0.1741 -0.3272
18074SOL    HW155416   2.734   7.417   0.640  1.4538  0.1898  0.2673
18074SOL    HW255417   2.802   7.474   0.517  0.1535  0.3506 -0.3968
18075SOL     OW55418   3.803   8.495   5.814 -0.1899 -0.3025  0.1095
18075SOL    HW155419   3.709   8.493   5.831 -0.6048  0.8040 -1.7485
18075SOL    HW255420   3.819   8.583   5.779  1.6166 -0.3401  0.7315
18076SOL     OW55421   5.983   1.678   0.157  0.1107 -0.7483 -0.0018
18076SOL    HW155422   6.005   1.747   0.219  0.7802  0.4432 -1.4943
18076SOL    HW255423   6.067   1.655   0.116 -0.4593 -0.6750 -1.2730
18077SOL     OW55424   2.415   1.481   2.661 -0.0069 -0.2361  0.2096
18077SOL    HW155425   2.422   1.473   2.566 -0.7419 -0.5151  0.1737
18077SOL    HW255426   2.365   1.562   2.675  1.5945  0.7713  0.4155
18078SOL     OW55427   4.742   6.274   2.391  0.6318  0.2681 -0.0242
18078SOL    HW155428   4.775   6.210   2.454  1.1733  2.5023  2.1218
18078SOL    HW255429   4.821   6.306   2.345  0.3509 -0.6445 -1.1791
18079SOL     OW55430   3.252   7.084   7.185  0.7318 -0.1934  0.0450
18079SOL    HW155431   3.200   7.042   7.116  1.7380 -0.0701 -0.8123
18079SOL    HW255432   3.204   7.065   7.266 -0.3332 -0.5687 -0.6488
18080SOL     OW55433   1.452   6.242   5.320 -0.3052  0.2184  0.7163
18080SOL    HW155434   1.447   6.338   5.325 -1.0503  0.4042 -1.9162
18080SOL    HW255435   1.361   6.214   5.312 -0.0907 -0.7344  1.4212
18081SOL     OW55436   0.378   6.035   0.408  0.4995  0.1940 -0.1893
18081SOL    HW155437   0.452   5.984   0.376 -0.0844 -0.3770 -0.6434
18081SOL    HW255438   0.410   6.126   0.410  1.6095 -0.1985  0.8232
18082SOL     OW55439   8.209   8.328   8.462 -0.7277 -0.2574  0.2041
18082SOL    HW155440   8.188   8.365   8.548  0.5779 -0.5479  0.6774
18082SOL    HW255441   8.273   8.389   8.425  0.1270 -1.1119  0.2501
18083SOL     OW55442   3.181   5.501   1.804 -0.5202 -0.6316 -0.3870
18083SOL    HW155443   3.128   5.433   1.762  0.6313 -0.8226 -1.5708
18083SOL    HW255444   3.253   5.454   1.845 -0.1921 -0.1968 -0.4564
18084SOL     OW55445   1.200   1.833   1.979 -0.3380  0.1507 -0.6136
18084SOL    HW155446   1.154   1.750   1.966  0.3980 -0.1479 -1.3627
18084SOL    HW255447   1.265   1.815   2.046  0.2762 -0.0770 -1.2527
18085SOL     OW55448   1.802   3.640   1.533  0.4330  0.1985 -0.0778
18085SOL    HW155449   1.883   3.605   1.496  1.7775  3.5441 -0.6547
18085SOL    HW255450   1.764   3.691   1.462 -1.5658 -0.2206  0.6118
18086SOL     OW55451   3.958   1.658   4.955 -0.1042  0.2336  0.1945
18086SOL    HW155452   4.039   1.651   4.904  1.8753 -0.3724  3.1276
18086SOL    HW255453   3.945   1.752   4.968  0.4353  0.3188  0.1279
18087SOL     OW55454   2.124   8.002   3.249  0.2524  0.6704 -0.1568
18087SOL    HW155455   2.083   7.926   3.291 -0.3565  0.3823 -1.2085
18087SOL    HW255456   2.124   8.070   3.316 -1.4766  0.5070  0.0571
18088SOL     OW55457   1.331   2.147   1.362 -0.5805  0.5532  0.4336
18088SOL    HW155458   1.381   2.227   1.346 -0.2751  0.3452  0.3377
18088SOL    HW255459   1.239   2.175   1.358 -0.5210  0.5666 -1.4047
18089SOL     OW55460   8.043   8.301   1.233  0.0486 -0.0355  0.0353
18089SOL    HW155461   8.063   8.369   1.297  1.2664  1.3309 -1.7027
18089SOL    HW255462   8.091   8.224   1.264 -0.0745  0.3529  1.2093
18090SOL     OW55463   4.660   6.578   2.421  0.2015  0.0954  0.5324
18090SOL    HW155464   4.661   6.565   2.326 -2.3352  1.1309  0.2876
18090SOL    HW255465   4.591   6.642   2.436  2.8569  2.7434  2.8091
18091SOL     OW55466   0.072   2.897   0.620  1.1638  0.3045  0.1842
18091SOL    HW155467  -0.022   2.884   0.638  0.8438  1.5345 -0.4979
18091SOL    HW255468   0.114   2.822   0.662  0.1639  1.1594  2.8795
18092SOL     OW55469   1.958   2.199   3.061  0.4588 -0.1506  0.2163
18092SOL    HW155470   1.998   2.197   2.974  0.9291 -1.1364  0.4409
18092SOL    HW255471   1.901   2.276   3.060  1.2901  0.4659 -0.5867
18093SOL     OW55472   4.338   3.138   7.855  0.4775 -0.2190 -0.2494
18093SOL    HW155473   4.260   3.113   7.904 -0.5128  1.5092 -0.8448
18093SOL    HW255474   4.393   3.183   7.919  0.4713 -0.4337 -0.0911
18094SOL     OW55475   7.494   8.573   3.034 -0.8042 -0.4355 -0.0094
18094SOL    HW155476   7.576   8.602   2.993 -1.0801 -2.0487 -1.8201
18094SOL    HW255477   7.448   8.526   2.965 -2.9408 -0.2279  1.1968
18095SOL     OW55478   8.284   5.897   1.561 -0.3883 -0.6336  0.6305
18095SOL    HW155479   8.307   5.863   1.648  0.0533 -0.5208  0.5586
18095SOL    HW255480   8.257   5.819   1.512 -0.8176 -0.6729  0.9219
18096SOL     OW55481   3.969   5.100   4.172  0.3549  0.4910 -0.0733
18096SOL    HW155482   4.018   5.139   4.101 -2.3967  1.0436 -1.8367
18096SOL    HW255483   3.943   5.014   4.140  0.1165  0.2378  0.7540
18097SOL     OW55484   0.105   2.626   6.708 -0.0675 -0.0822 -0.5330
18097SOL    HW155485   0.126   2.714   6.675 -0.3705  0.0557 -0.3619
18097SOL    HW255486   0.168   2.569   6.663  0.4268  0.2740 -0.3095
18098SOL     OW55487   0.316   6.514   4.953 -0.8135 -0.5663 -0.2993
18098SOL    HW155488   0.328   6.548   4.864  0.5694  0.0841  0.1032
18098SOL    HW255489   0.317   6.419   4.942 -1.1501 -0.4953 -1.0313
18099SOL     OW55490   8.291   4.990   4.208 -0.5933 -0.3751 -0.4737
18099SOL    HW155491   8.275   4.931   4.135 -2.3737 -1.5396  0.7621
18099SOL    HW255492   8.230   5.063   4.194 -0.7323 -0.4586 -0.3089
18100SOL     OW55493   1.470   8.026   7.130 -0.3837 -0.3733 -0.0794
18100SOL    HW155494   1.471   8.118   7.158  1.6672 -0.8663  1.8011
18100SOL    HW255495   1.424   7.981   7.200 -1.4421 -0.7900 -1.0334
18101SOL     OW55496   3.711   2.264   0.255  0.7256 -0.0591 -0.8006
18101SOL    HW155497   3.718   2.272   0.160  0.6901  0.4706 -0.7593
18101SOL    HW255498   3.784   2.207   0.280  0.1266 -1.0599 -1.2540
18102SOL     OW55499   2.618   4.687   8.584 -0.4344  0.0730 -0.0146
18102SOL    HW155500   2.613   4.651   8.496  1.2924 -0.6039  0.1201
18102SOL    HW255501   2.598   4.780   8.574 -1.5660 -0.2526 -0.8993
18103SOL     OW55502   1.405   3.519   4.463  0.0320 -0.1469  0.6324
18103SOL    HW155503   1.483   3.568   4.486  0.0511  0.4042 -0.5337
18103SOL    HW255504   1.377   3.556   4.379  0.3299 -2.4267 -0.5566
18104SOL     OW55505   1.643   4.137   8.097  0.0406  0.2104 -0.1971
18104SOL    HW155506   1.638   4.164   8.189 -0.8942  0.9751 -0.4585
18104SOL    HW255507   1.606   4.210   8.048  0.4336 -0.2263 -1.1899
18105SOL     OW55508   4.585   5.496   7.308 -0.7825  0.3140  0.0178
18105SOL    HW155509   4.566   5.584   7.341  1.2980  0.6706  0.3911
18105SOL    HW255510   4.579   5.439   7.384  2.4787  0.9053  0.8707
18106SOL     OW55511   6.863   1.400   7.201  0.3152 -0.1947  0.0923
18106SOL    HW155512   6.822   1.319   7.171 -0.3852 -0.5403  1.8549
18106SOL    HW255513   6.797   1.441   7.256  0.8834  1.3088 -0.2970
18107SOL     OW55514   4.604   4.956   5.056 -0.1832 -0.4701 -0.1642
18107SOL    HW155515   4.654   5.037   5.051 -0.2953 -0.1921  2.0772
18107SOL    HW255516   4.544   4.969   5.129 -1.9644 -1.6641 -1.3316
18108SOL     OW55517   3.184   4.971   6.696  0.2806 -0.0884 -0.8212
18108SOL    HW155518   3.185   5.011   6.609 -0.4714 -0.5266 -1.0355
18108SOL    HW255519   3.191   5.046   6.756 -1.6087  0.4549 -1.2036
18109SOL     OW55520   5.975   2.824   5.649 -0.0965  0.0673  0.2463
18109SOL    HW155521   5.881   2.813   5.662  0.0880 -1.9077  0.1845
18109SOL    HW255522   5.987   2.818   5.554  0.3488 -2.8619  0.3821
18110SOL     OW55523   1.256   2.360   8.535  0.2861  0.2984  0.0860
18110SOL    HW155524   1.320   2.333   8.469  1.4880  0.8975  0.9674
18110SOL    HW255525   1.206   2.281   8.554  3.3966 -1.3440  2.2552
18111SOL     OW55526   2.510   0.953   0.493  0.0741  0.2997  0.6203
18111SOL    HW155527   2.498   0.865   0.458 -0.0269  1.1569 -1.6628
18111SOL    HW255528   2.604   0.970   0.485 -0.2053  1.2137 -1.1779
18112SOL     OW55529   8.455   7.551   3.798  0.4018  0.0838 -0.1215
18112SOL    HW155530   8.490   7.471   3.836  1.5838  0.2086 -0.8977
18112SOL    HW255531   8.365   7.556   3.831  0.8077 -0.7316  1.1893
18113SOL     OW55532   3.410   2.501   3.101  0.1699  0.6867  0.1463
18113SOL    HW155533   3.374   2.464   3.182 -1.0543  0.3118 -0.5465
18113SOL    HW255534   3.335   2.538   3.056  0.5555 -0.4650 -1.5515
18114SOL     OW55535   7.930   2.140   7.227 -0.0866  0.4548  0.9611
18114SOL    HW155536   7.963   2.224   7.194 -1.3787  0.4522 -0.4514
18114SOL    HW255537   7.904   2.158   7.317 -0.7176  1.6987  0.5575
18115SOL     OW55538   3.231   4.538   1.021  1.0963  0.1855  0.2405
18115SOL    HW155539   3.290   4.554   1.094  2.9885  0.7860 -1.3119
18115SOL    HW255540   3.246   4.447   0.997  1.4065  0.3343 -0.1464
18116SOL     OW55541   8.237   1.947   4.851 -0.5434 -0.0913 -0.5028
18116SOL    HW155542   8.249   2.015   4.917 -0.9617  0.2418 -0.7627
18116SOL    HW255543   8.324   1.908   4.839  0.0758  1.5231 -1.5780
18117SOL     OW55544   3.302   1.328   6.742  0.3137  0.3592  0.1527
18117SOL    HW155545   3.222   1.295   6.785 -0.7832  0.9639 -1.3296
18117SOL    HW255546   3.341   1.250   6.702 -0.2036  0.2446 -0.1377
18118SOL     OW55547   5.792   6.306   5.048 -0.0044 -0.8647  0.1255
18118SOL    HW155548   5.844   6.379   5.081 -0.5658 -0.3321 -0.1405
18118SOL    HW255549   5.762   6.335   4.962 -0.2324 -1.4129  0.0140
18119SOL     OW55550   5.458   4.953   5.617 -0.0033  0.1965  0.4270
18119SOL    HW155551   5.478   4.974   5.709  1.0923 -0.8512  0.4519
18119SOL    HW255552   5.530   4.897   5.589 -1.6265 -1.6292 -0.3084
18120SOL     OW55553   2.827   7.584   5.293 -0.2514  0.5895  0.5104
18120SOL    HW155554   2.912   7.540   5.298 -0.2192  0.7047  1.1410
18120SOL    HW255555   2.849   7.676   5.277 -0.2931  0.4883 -0.1516
18121SOL     OW55556   4.560   8.270   4.045  0.6021 -0.2024 -0.2236
18121SOL    HW155557   4.503   8.203   4.006  1.6641 -0.7845 -0.8266
18121SOL    HW255558   4.606   8.309   3.971 -0.2950  1.5118  0.0831
18122SOL     OW55559   6.574   4.879   1.488 -0.3596 -0.3719  0.3559
18122SOL    HW155560   6.566   4.949   1.552 -0.2545  0.2166 -0.2596
18122SOL    HW255561   6.664   4.848   1.497  0.3747  1.2251 -1.0134
18123SOL     OW55562   0.190   3.706   0.681  0.5473 -0.6533  0.7452
18123SOL    HW155563   0.100   3.700   0.715 -0.4311 -0.4598 -1.5733
18123SOL    HW255564   0.245   3.703   0.759 -1.5139  0.8485  2.4116
18124SOL     OW55565   5.797   2.772   2.687 -0.0569  0.3985  0.0223
18124SOL    HW155566   5.784   2.732   2.773 -0.5927  0.3753 -0.0690
18124SOL    HW255567   5.727   2.735   2.633  0.2575  0.4431 -0.4130
18125SOL     OW55568   7.638   6.064   5.078 -0.3792 -0.4671  0.0536
18125SOL    HW155569   7.673   6.002   5.014 -1.0247  0.0641 -0.8479
18125SOL    HW255570   7.583   6.011   5.135 -0.5712 -0.8022 -0.4373
18126SOL     OW55571   2.936   4.151   4.715 -0.2601 -0.7337  0.2142
18126SOL    HW155572   2.968   4.081   4.773  0.2632 -0.9877 -0.3680
18126SOL    HW255573   2.984   4.138   4.634  1.6459  1.7199  0.8165
18127SOL     OW55574   8.001   0.515   6.427  0.5354 -0.4868 -0.2856
18127SOL    HW155575   8.029   0.586   6.368 -0.3522 -0.3675 -0.5769
18127SOL    HW255576   7.907   0.509   6.414  0.5225 -1.3555  0.1555
18128SOL     OW55577   5.002   3.013   0.024  0.2960  0.0640 -0.5402
18128SOL    HW155578   5.065   3.085   0.015  1.7192 -0.9367  0.8991
18128SOL    HW255579   5.045   2.938  -0.016 -1.0654 -0.0967 -1.7815
18129SOL     OW55580   1.251   3.460   3.915 -0.0505  0.7195  0.5633
18129SOL    HW155581   1.183   3.504   3.863  1.0025  1.1578 -0.4959
18129SOL    HW255582   1.223   3.369   3.918 -1.1098  1.0461  0.8544
18130SOL     OW55583   7.974   6.291   0.970  0.4850  0.4146 -0.3850
18130SOL    HW155584   8.056   6.323   0.932 -0.2819  1.4266 -1.2539
18130SOL    HW255585   7.997   6.208   1.012  1.6753  0.0064 -1.7753
18131SOL     OW55586   2.042   5.642   6.225  0.3080  0.6855 -0.1087
18131SOL    HW155587   1.994   5.566   6.192  0.3052  1.0658 -1.0287
18131SOL    HW255588   2.131   5.611   6.241 -0.2137 -0.0188  1.5739
18132SOL     OW55589   3.213   5.413   0.404  0.0264 -0.4910 -0.0254
18132SOL    HW155590   3.300   5.452   0.401  0.2397 -0.9512  0.0121
18132SOL    HW255591   3.229   5.318   0.398 -0.4495 -0.5994  0.3347
18133SOL     OW55592   3.518   0.805   8.400 -0.1342  0.5605 -0.2722
18133SOL    HW155593   3.473   0.875   8.352 -1.8121 -0.9728 -1.0294
18133SOL    HW255594   3.610   0.814   8.373 -0.0175  3.2692  0.7051
18134SOL     OW55595   0.765   4.098   3.270  0.7064 -0.1835 -0.3165
18134SOL    HW155596   0.676   4.074   3.241  0.4951 -0.6552  0.6949
18134SOL    HW255597   0.794   4.163   3.206 -0.5416  0.3083 -0.4034
18135SOL     OW55598   4.691   4.806   4.367 -0.2581 -0.4697 -0.7856
18135SOL    HW155599   4.674   4.885   4.316 -0.7883  0.1241  0.2821
18135SOL    HW255600   4.741   4.836   4.442 -1.0539 -1.0249 -0.0130
18136SOL     OW55601   5.960   3.906   6.006 -0.0673 -0.1707  0.1773
18136SOL    HW155602   5.881   3.855   5.987  1.5531 -3.1876  0.8612
18136SOL    HW255603   5.942   3.950   6.088 -2.0821  1.7515 -1.1852
18137SOL     OW55604   1.561   3.598   7.130  0.4149  0.4440 -0.0874
18137SOL    HW155605   1.504   3.674   7.136  1.3260  1.1550 -0.2350
18137SOL    HW255606   1.570   3.567   7.220 -0.6588 -0.0396 -0.1284
18138SOL     OW55607   3.407   2.841   8.467  0.2556 -0.2503 -0.3200
18138SOL    HW155608   3.448   2.755   8.465 -1.1565 -0.9183 -2.0031
18138SOL    HW255609   3.456   2.892   8.402  1.8382  0.6481  1.4633
18139SOL     OW55610   7.160   0.580   4.292  0.1798  0.0874 -0.3537
18139SOL    HW155611   7.124   0.662   4.260 -0.8342 -0.5483 -0.8971
18139SOL    HW255612   7.119   0.513   4.238  0.7962 -0.7965  0.2466
18140SOL     OW55613   0.882   3.108   6.595 -0.2646 -0.6724  0.5972
18140SOL    HW155614   0.924   3.192   6.576 -0.5330 -0.2930  1.6219
18140SOL    HW255615   0.828   3.089   6.517  1.3220 -0.8933 -0.5014
18141SOL     OW55616   2.384   4.499   8.415  0.4798  0.4435 -0.2308
18141SOL    HW155617   2.388   4.414   8.372 -0.2242 -0.0569  0.6420
18141SOL    HW255618   2.395   4.479   8.508  0.2423  1.2959 -0.0088
18142SOL     OW55619   6.749   7.071   0.829 -0.1554 -0.0615  0.4411
18142SOL    HW155620   6.783   6.982   0.831 -0.4693 -0.1816  0.4874
18142SOL    HW255621   6.796   7.116   0.900  0.8868  0.1447 -0.3456
18143SOL     OW55622   2.029   4.529   0.990 -0.0161  0.2761  0.1456
18143SOL    HW155623   1.991   4.497   0.908 -0.4244  0.9401  0.0722
18143SOL    HW255624   2.057   4.450   1.036 -2.0114 -0.2836  0.4626
18144SOL     OW55625   1.622   0.540   7.016  0.0374  0.3433  0.2855
18144SOL    HW155626   1.571   0.479   7.069 -0.4031  1.3897  1.1246
18144SOL    HW255627   1.670   0.593   7.080  0.3507  0.9242 -0.4056
18145SOL     OW55628   3.932   2.291   5.224 -0.1978 -0.0442 -0.3753
18145SOL    HW155629   3.965   2.203   5.205 -0.7197 -0.5120  0.8408
18145SOL    HW255630   3.994   2.349   5.178 -0.1773 -1.0332 -1.6830
18146SOL     OW55631   4.232   4.618   2.344 -0.0238 -0.0551  0.3747
18146SOL    HW155632   4.258   4.710   2.355 -1.6260  0.3542  1.0124
18146SOL    HW255633   4.221   4.585   2.433 -0.9195 -0.4050  0.1458
18147SOL     OW55634   0.917   3.060   6.049 -0.5073 -0.2047 -0.2043
18147SOL    HW155635   0.824   3.043   6.058 -0.1401 -2.2360  0.2444
18147SOL    HW255636   0.958   3.006   6.117  0.9389  1.5272  0.3860
18148SOL     OW55637   3.622   0.836   3.955  0.1724 -0.0288  0.5052
18148SOL    HW155638   3.669   0.772   3.902 -0.1783  0.1783 -0.0682
18148SOL    HW255639   3.569   0.884   3.892  0.7388  1.0997  0.8673
18149SOL     OW55640   6.768   7.099   3.128  0.0387  0.5191 -0.2373
18149SOL    HW155641   6.781   7.011   3.091  0.2316  0.6359 -0.4503
18149SOL    HW255642   6.751   7.155   3.053 -0.4804  0.5970 -0.0647
18150SOL     OW55643   0.215   8.110   5.388 -0.0953 -0.4271 -0.3843
18150SOL    HW155644   0.235   8.016   5.395  1.3338 -0.0545  1.3223
18150SOL    HW255645   0.299   8.153   5.399 -0.9854  1.1005  0.8402
18151SOL     OW55646   4.440   6.689   1.334  0.7579 -0.1846 -0.4503
18151SOL    HW155647   4.434   6.646   1.249 -0.2565  0.7119 -0.8528
18151SOL    HW255648   4.360   6.741   1.341  0.4880 -0.7850  1.3709
18152SOL     OW55649   7.761   4.626   5.669 -0.0633 -0.1232 -0.1502
18152SOL    HW155650   7.856   4.609   5.667  0.1344  0.9412 -0.9368
18152SOL    HW255651   7.726   4.576   5.596  0.3442  1.7227 -1.6983
18153SOL     OW55652   6.812   5.457   4.404 -0.1760  0.4225  0.4084
18153SOL    HW155653   6.794   5.517   4.331  0.4574 -2.0247 -1.9190
18153SOL    HW255654   6.904   5.432   4.393 -0.5198 -1.2552  1.0426
18154SOL     OW55655   3.319   1.003   3.391 -0.3139  0.2539  0.1933
18154SOL    HW155656   3.312   0.982   3.484  1.7773  0.7560  0.5180
18154SOL    HW255657   3.274   0.931   3.346  1.8959 -2.0755  1.4655
18155SOL     OW55658   8.218   2.525   2.269  0.7000  0.7543  0.0933
18155SOL    HW155659   8.201   2.510   2.362  0.5232 -1.1447 -0.2079
18155SOL    HW255660   8.149   2.586   2.241 -1.0230 -0.9074  0.5923
18156SOL     OW55661   8.240   1.384   7.524 -0.7385  0.4193 -0.0638
18156SOL    HW155662   8.334   1.394   7.512 -0.8658  1.4285 -0.3061
18156SOL    HW255663   8.231   1.311   7.585  0.1694 -0.1775 -0.6272
18157SOL     OW55664   6.658   0.936   1.307  0.5449  0.3960  0.7590
18157SOL    HW155665   6.611   0.972   1.382 -0.9116  0.4778 -0.1560
18157SOL    HW255666   6.592   0.887   1.257  1.5050  0.1936 -0.3896
18158SOL     OW55667   2.629   5.510   1.323 -0.4143 -0.1541  0.4632
18158SOL    HW155668   2.624   5.431   1.377 -1.3105  0.2161  0.9530
18158SOL    HW255669   2.578   5.575   1.372  1.6931  1.2380  0.9263
18159SOL     OW55670   7.078   2.343   7.810  0.0990 -0.4256  0.0019
18159SOL    HW155671   7.106   2.434   7.816 -1.1890 -0.0718  1.2068
18159SOL    HW255672   7.060   2.318   7.901 -0.1930 -1.6812 -0.3826
18160SOL     OW55673   2.553   5.454   2.590  0.0126 -0.5403 -0.1985
18160SOL    HW155674   2.574   5.539   2.629 -2.3071  0.3861 -0.8350
18160SOL    HW255675   2.603   5.391   2.642 -1.0539  0.8493  2.7054
18161SOL     OW55676   7.488   2.413   5.635 -0.0193  0.7432  0.4013
18161SOL    HW155677   7.478   2.502   5.601  0.4249  0.7489  0.2671
18161SOL    HW255678   7.400   2.376   5.634 -0.0152  0.7272 -0.8104
18162SOL     OW55679   6.099   7.454   2.655  0.3697 -0.2641 -0.2510
18162SOL    HW155680   6.141   7.508   2.587 -2.8873 -1.3510 -3.4552
18162SOL    HW255681   6.074   7.373   2.610 -3.5183 -0.3935  1.7013
18163SOL     OW55682   1.145   5.174   5.432  0.2724  0.1289 -0.5895
18163SOL    HW155683   1.074   5.234   5.411  0.8531  1.0087 -0.1257
18163SOL    HW255684   1.101   5.091   5.452 -0.6473  0.7095 -0.0985
18164SOL     OW55685   5.528   1.419   2.024 -0.0790 -0.6160  0.2386
18164SOL    HW155686   5.503   1.428   2.116  0.9763  0.3356  0.4688
18164SOL    HW255687   5.511   1.328   2.003 -1.7820 -0.4871  0.9243
18165SOL     OW55688   0.439   1.903   6.458 -0.5262  0.3962  0.0703
18165SOL    HW155689   0.503   1.938   6.395  0.8466  0.0818  1.2323
18165SOL    HW255690   0.371   1.970   6.464  0.1089  1.1188 -0.5794
18166SOL     OW55691   4.020   7.310   4.626 -0.8047  0.3615 -0.2895
18166SOL    HW155692   4.067   7.351   4.554 -0.2168 -0.6168 -0.4804
18166SOL    HW255693   3.938   7.360   4.633 -1.1819  0.0405 -2.0736
18167SOL     OW55694   1.951   6.014   0.408 -0.6688  0.2518 -0.1048
18167SOL    HW155695   1.934   6.004   0.315  2.6410 -2.8423 -0.6098
18167SOL    HW255696   1.968   5.925   0.439 -0.2084  1.3308  3.1543
18168SOL     OW55697   6.127   5.689   3.857  0.0635 -0.0098 -0.4595
18168SOL    HW155698   6.212   5.709   3.819  1.3540  1.0366  2.6464
18168SOL    HW255699   6.147   5.637   3.935 -2.2842 -1.1013 -0.4819
18169SOL     OW55700   5.175   1.896   7.947 -0.2740 -0.1106  0.1780
18169SOL    HW155701   5.088   1.884   7.985 -0.4459  0.9726  0.1365
18169SOL    HW255702   5.197   1.809   7.911 -1.7319 -0.1769 -0.6495
18170SOL     OW55703   0.103   3.964   5.717  0.1696  0.0026 -0.0257
18170SOL    HW155704   0.147   4.047   5.698  1.8844 -0.8166  0.1332
18170SOL    HW255705   0.010   3.982   5.705  0.4536  2.1023  0.6415
18171SOL     OW55706   3.873   1.353   6.818 -0.2650  0.6888 -0.3273
18171SOL    HW155707   3.948   1.339   6.761 -1.5375 -1.3582 -1.6079
18171SOL    HW255708   3.803   1.382   6.759 -0.8078  1.4994  0.6773
18172SOL     OW55709   5.488   3.026   4.276 -0.0634  0.1559 -0.3554
18172SOL    HW155710   5.440   2.956   4.232 -0.9962  1.5920 -1.7103
18172SOL    HW255711   5.545   3.063   4.209 -0.4790  1.4582 -0.0332
18173SOL     OW55712   0.864   0.717   6.105 -0.4803 -0.0183 -0.0525
18173SOL    HW155713   0.779   0.750   6.074  0.2815  1.2400 -0.8990
18173SOL    HW255714   0.915   0.704   6.025 -0.1566 -1.6607  0.3796
18174SOL     OW55715   0.818   3.703   1.413 -0.1471 -0.0536  0.1912
18174SOL    HW155716   0.745   3.699   1.474 -0.6843  0.2085 -0.4208
18174SOL    HW255717   0.826   3.614   1.379  0.1495 -0.1984  0.6284
18175SOL     OW55718   5.405   5.244   0.506 -0.2271 -0.4059  0.4224
18175SOL    HW155719   5.358   5.167   0.539  0.6284 -1.0010  0.2772
18175SOL    HW255720   5.380   5.248   0.413 -0.1642 -0.5911  0.3965
18176SOL     OW55721   6.067   4.170   0.623  0.0114 -0.1184 -0.5016
18176SOL    HW155722   6.110   4.202   0.702  0.6336 -4.5319  1.2746
18176SOL    HW255723   6.136   4.169   0.556  0.6304 -0.1650  0.1283
18177SOL     OW55724   5.102   7.635   1.818  0.1095  0.0259  0.2058
18177SOL    HW155725   5.041   7.659   1.889 -1.5806 -0.8203 -0.8829
18177SOL    HW255726   5.160   7.711   1.809 -1.1854  1.1417  0.8927
18178SOL     OW55727   3.488   6.018   5.926  0.5999  0.0627  0.2543
18178SOL    HW155728   3.443   5.943   5.964  0.5312 -0.3242 -0.5832
18178SOL    HW255729   3.581   5.997   5.934  0.5774 -0.2119 -0.1611
18179SOL     OW55730   0.539   2.007   6.867 -0.1590 -0.4611 -0.2744
18179SOL    HW155731   0.476   1.961   6.922 -1.5571  0.5419 -0.9728
18179SOL    HW255732   0.565   1.943   6.801 -2.6320 -0.1444 -1.6917
18180SOL     OW55733   4.989   1.903   4.538  0.2070  0.3094 -0.2005
18180SOL    HW155734   4.988   1.810   4.562  1.3885  0.4303  0.4184
18180SOL    HW255735   4.899   1.932   4.549  0.1535 -0.3537  1.3622
18181SOL     OW55736   1.094   7.245   7.822 -0.2271  0.4421  0.3868
18181SOL    HW155737   1.160   7.179   7.802  1.0776  1.7589  0.1299
18181SOL    HW255738   1.039   7.249   7.744 -0.6138 -0.6437  0.5908
18182SOL     OW55739   7.411   3.875   6.533 -0.1718  0.6209 -0.2215
18182SOL    HW155740   7.466   3.941   6.577  2.1632 -1.8505  0.8076
18182SOL    HW255741   7.460   3.850   6.455  0.4544 -1.8201  0.8506
18183SOL     OW55742   6.170   6.976   5.930  0.1308  0.4375 -0.0071
18183SOL    HW155743   6.147   7.036   5.859  0.9854 -0.0552 -0.7118
18183SOL    HW255744   6.111   6.901   5.917  0.9538 -0.0903 -0.8120
18184SOL     OW55745   8.217   0.982   4.397 -0.2867 -0.0385  0.3844
18184SOL    HW155746   8.289   0.970   4.335 -0.0226 -1.2600  0.9037
18184SOL    HW255747   8.143   1.010   4.343  0.3206  0.3230 -0.2795
18185SOL     OW55748   5.539   5.639   6.095  0.5212 -0.0996  0.3873
18185SOL    HW155749   5.621   5.626   6.144  0.2874 -0.4118  0.7028
18185SOL    HW255750   5.549   5.583   6.018  0.0946 -1.1306  1.0508
18186SOL     OW55751   6.891   3.245   2.384 -0.3671  0.5443  0.6456
18186SOL    HW155752   6.982   3.225   2.403 -0.5835 -0.9084  0.2097
18186SOL    HW255753   6.873   3.324   2.436  0.6888 -0.0212  1.9254
18187SOL     OW55754   1.732   4.960   8.256 -0.2511 -0.7574  0.7333
18187SOL    HW155755   1.813   4.984   8.301 -1.0184  1.2012  1.1916
18187SOL    HW255756   1.663   4.987   8.317 -1.2645 -1.8578  0.1019
18188SOL     OW55757   3.039   1.481   7.545  0.1815 -0.1416 -0.6412
18188SOL    HW155758   3.126   1.506   7.516 -0.0345  1.1841 -0.2071
18188SOL    HW255759   3.055   1.415   7.613  0.9201  0.9202  0.2604
18189SOL     OW55760   3.848   7.057   0.772  0.5514 -0.3439 -0.2086
18189SOL    HW155761   3.880   7.146   0.759  1.1011 -0.5105 -0.0440
18189SOL    HW255762   3.852   7.017   0.685 -1.7311  0.4195 -0.7236
18190SOL     OW55763   2.044   0.333   7.913 -0.7657 -0.1731 -0.1285
18190SOL    HW155764   2.059   0.262   7.851 -2.7507  0.5297 -1.5139
18190SOL    HW255765   2.126   0.383   7.912  0.5328 -2.1769  0.6141
18191SOL     OW55766   2.069   5.064   8.116 -0.1247  0.8392  0.5197
18191SOL    HW155767   2.050   4.996   8.051  0.0579  2.1731 -0.9611
18191SOL    HW255768   1.993   5.122   8.113  0.4189  1.5650  0.6518
18192SOL     OW55769   6.077   2.429   5.193 -0.7210 -0.4949 -0.1882
18192SOL    HW155770   6.148   2.427   5.129  0.4198 -0.6625  1.0288
18192SOL    HW255771   6.056   2.522   5.203  1.9669  0.0074  2.1476
18193SOL     OW55772   5.731   8.109   5.073 -0.4968  0.3292 -0.1128
18193SOL    HW155773   5.810   8.120   5.125 -1.1127 -0.3514  1.0131
18193SOL    HW255774   5.664   8.161   5.120 -0.9837 -0.0246 -0.4075
18194SOL     OW55775   3.095   6.810   0.633 -0.5270 -0.2864 -0.6702
18194SOL    HW155776   3.187   6.834   0.639 -1.0013  1.9321 -1.2100
18194SOL    HW255777   3.089   6.754   0.555  0.1791  0.6124 -1.3788
18195SOL     OW55778   5.435   2.865   5.393 -0.0489  0.0648  0.0478
18195SOL    HW155779   5.446   2.865   5.298  4.8049  0.2950  0.3589
18195SOL    HW255780   5.415   2.957   5.415  1.1643  0.5238 -0.6626
18196SOL     OW55781   0.877   6.042   4.174 -0.0496  0.8340  0.2399
18196SOL    HW155782   0.861   6.135   4.187  0.5048  1.1616 -1.2794
18196SOL    HW255783   0.796   6.008   4.135  0.0577  0.8484  0.0058
18197SOL     OW55784   3.244   3.117   7.066  0.0986 -0.0854  0.1602
18197SOL    HW155785   3.304   3.045   7.049  0.2672  0.0217  0.2917
18197SOL    HW255786   3.191   3.087   7.140  0.9446  0.3745  0.9796
18198SOL     OW55787   2.542   5.902   2.060  0.6783  0.5793  0.6639
18198SOL    HW155788   2.468   5.852   2.023  0.8528  1.1233 -0.4534
18198SOL    HW255789   2.606   5.835   2.083  0.5191  0.2014  0.0592
18199SOL     OW55790   6.401   5.377   0.812  0.5450 -0.6632 -0.1228
18199SOL    HW155791   6.493   5.401   0.801  0.3584  0.5831  0.7694
18199SOL    HW255792   6.391   5.366   0.907 -0.5202  0.5886 -0.0680
18200SOL     OW55793   4.675   3.257   4.744  0.6461  0.3815  0.4654
18200SOL    HW155794   4.631   3.318   4.805  0.7645 -0.5840  1.5498
18200SOL    HW255795   4.622   3.261   4.665  1.5460  3.1135 -0.1336
18201SOL     OW55796   6.716   4.207   7.089 -0.7097  0.0567 -0.1377
18201SOL    HW155797   6.747   4.142   7.151 -1.8014  0.1064  0.4754
18201SOL    HW255798   6.744   4.291   7.126 -3.1151  0.2497  1.4025
18202SOL     OW55799   6.799   5.296   3.945  0.2337  0.4580 -0.4617
18202SOL    HW155800   6.748   5.347   4.008 -1.0217 -1.0276 -0.2366
18202SOL    HW255801   6.888   5.295   3.981 -0.3496  0.0645  1.0154
18203SOL     OW55802   6.634   3.733   6.486 -0.2083  0.4328  0.2433
18203SOL    HW155803   6.622   3.827   6.491  1.1543  0.5587  1.7984
18203SOL    HW255804   6.725   3.718   6.510  0.2472 -1.1460 -2.0352
18204SOL     OW55805   1.020   2.851   6.348  0.0053  0.2847  0.3104
18204SOL    HW155806   0.990   2.866   6.438  0.8055 -1.8670  1.0126
18204SOL    HW255807   1.056   2.934   6.320  0.5380  0.7828  2.3206
18205SOL     OW55808   3.380   2.701   0.346 -0.4308 -0.2786  0.2019
18205SOL    HW155809   3.434   2.639   0.296  0.2628  2.6903 -3.1462
18205SOL    HW255810   3.441   2.742   0.407 -0.1763 -0.7603  0.2756
18206SOL     OW55811   2.063   1.317   6.833  0.1651  0.8399 -0.1415
18206SOL    HW155812   2.129   1.368   6.787 -0.4738  2.5080  0.6881
18206SOL    HW255813   2.075   1.227   6.802  1.8150  1.3590 -1.1146
18207SOL     OW55814   3.986   4.962   3.280  0.2695  0.0432 -0.0821
18207SOL    HW155815   4.002   4.961   3.374  0.9941  2.3261 -0.1179
18207SOL    HW255816   3.891   4.954   3.271  0.3327 -2.0398  0.7174
18208SOL     OW55817   2.125   8.530   5.913 -0.3633  0.0493  0.3287
18208SOL    HW155818   2.056   8.558   5.853  0.0490  0.1344 -0.1119
18208SOL    HW255819   2.128   8.599   5.979  1.2757  1.6315 -1.2613
18209SOL     OW55820   5.821   6.780   5.355 -0.1674 -0.7168  0.1251
18209SOL    HW155821   5.853   6.866   5.384 -2.5768  0.4465 -0.3856
18209SOL    HW255822   5.832   6.782   5.260 -0.5117 -0.8403  0.0813
18210SOL     OW55823   4.143   4.397   2.646 -0.0581  0.1747  0.9034
18210SOL    HW155824   4.075   4.443   2.694  0.2580  1.0416  0.5333
18210SOL    HW255825   4.116   4.305   2.648 -1.4998  0.5627  0.3574
18211SOL     OW55826   7.985   2.375   2.787  0.0715 -0.2999 -0.5139
18211SOL    HW155827   7.985   2.331   2.872 -2.1610  1.3208  0.4255
18211SOL    HW255828   8.005   2.305   2.724 -0.1140 -1.9554  1.1633
18212SOL     OW55829   4.986   7.280   0.826 -0.6445 -0.0154 -0.1122
18212SOL    HW155830   5.077   7.254   0.843 -0.2668  1.1385 -0.2906
18212SOL    HW255831   4.990   7.332   0.746 -1.3664  0.5977  0.2377
18213SOL     OW55832   6.257   5.165   0.302 -0.9013  0.6207 -0.1089
18213SOL    HW155833   6.294   5.210   0.378 -1.0630  1.3767 -0.4684
18213SOL    HW255834   6.180   5.120   0.336 -1.0885  1.1224  0.1423
18214SOL     OW55835   1.029   6.358   3.458 -0.4625  0.0557 -0.3255
18214SOL    HW155836   1.089   6.304   3.510 -0.1965  1.2525  0.6314
18214SOL    HW255837   1.008   6.303   3.382  2.7101 -0.0498 -1.2857
18215SOL     OW55838   4.096   1.927   8.009 -0.2502  0.6572  0.3537
18215SOL    HW155839   4.166   1.978   8.049 -0.6996  0.4069  1.5035
18215SOL    HW255840   4.122   1.836   8.022  0.4074  0.5500 -1.4340
18216SOL     OW55841   5.237   8.575   3.921 -0.1421  0.2255 -0.4759
18216SOL    HW155842   5.186   8.571   3.841 -1.0937  0.5327  0.1009
18216SOL    HW255843   5.174   8.600   3.989  0.6435 -0.0132  0.3664
18217SOL     OW55844   3.271   7.942   8.271 -0.0199  0.0300 -0.0439
18217SOL    HW155845   3.337   8.005   8.240 -0.5279 -0.1269 -1.4886
18217SOL    HW255846   3.301   7.858   8.237 -1.2864  0.0481 -1.2910
18218SOL     OW55847   4.559   7.147   8.470 -0.4461  0.3766  0.3670
18218SOL    HW155848   4.541   7.240   8.485 -0.6974  0.2963  0.5787
18218SOL    HW255849   4.576   7.141   8.376 -1.5968  0.4527  0.1412
18219SOL     OW55850   3.646   4.049   1.539 -0.0615 -0.6506  0.2039
18219SOL    HW155851   3.640   4.063   1.445  1.2665  0.4558  0.2494
18219SOL    HW255852   3.718   3.987   1.550  0.2757 -0.2149  0.5094
18220SOL     OW55853   1.524   2.415   8.043  0.8342 -0.1475  0.0157
18220SOL    HW155854   1.509   2.341   8.102  0.4229 -0.0167  0.0799
18220SOL    HW255855   1.511   2.380   7.955  0.0822 -0.0235  0.0741
18221SOL     OW55856   4.591   3.631   3.522  0.6663  0.5056  0.1957
18221SOL    HW155857   4.626   3.584   3.598 -0.2856  2.0244  1.6338
18221SOL    HW255858   4.619   3.722   3.534 -0.8854  1.0943 -0.4028
18222SOL     OW55859   1.800   2.895   5.162 -0.2701  0.2952 -0.2282
18222SOL    HW155860   1.831   2.967   5.107 -0.9886 -0.6111 -1.8900
18222SOL    HW255861   1.727   2.857   5.113  2.1661 -3.7589 -1.2139
18223SOL     OW55862   4.936   3.260   1.952 -0.1104  0.4029  0.4451
18223SOL    HW155863   5.014   3.212   1.982  0.4544 -0.5673 -2.2787
18223SOL    HW255864   4.963   3.352   1.955  2.0012  0.0083 -2.3024
18224SOL     OW55865   0.956   0.378   2.405  0.3604 -0.2277  0.1076
18224SOL    HW155866   1.000   0.453   2.446 -0.4819 -0.2241  1.0360
18224SOL    HW255867   0.864   0.403   2.403 -0.1558 -1.8176  1.7894
18225SOL     OW55868   0.051   5.643   6.094 -0.5673 -0.2185 -0.2151
18225SOL    HW155869   0.010   5.719   6.054 -0.4918  0.3622  0.7768
18225SOL    HW255870   0.137   5.638   6.052 -1.1493 -0.6808 -1.3791
18226SOL     OW55871   2.469   3.049   2.255 -0.1507 -0.7664  0.4686
18226SOL    HW155872   2.553   3.058   2.209  0.0779 -0.0715  1.0013
18226SOL    HW255873   2.491   3.000   2.334 -0.4348 -1.4462  0.1310
18227SOL     OW55874   7.281   5.604   0.337 -0.6404 -0.5923 -0.4900
18227SOL    HW155875   7.296   5.582   0.429 -2.6143 -1.5531 -0.3478
18227SOL    HW255876   7.273   5.519   0.293 -1.1496 -0.1503 -1.2789
18228SOL     OW55877   5.085   3.254   8.090 -0.1637  0.8805 -0.5466
18228SOL    HW155878   5.004   3.222   8.130  0.8981 -0.9212  0.3006
18228SOL    HW255879   5.071   3.244   7.996  0.7031 -4.2859 -0.4422
18229SOL     OW55880   2.325   5.835   4.260 -0.3778 -0.6939  0.1804
18229SOL    HW155881   2.293   5.903   4.319 -0.6983 -0.1392 -0.6247
18229SOL    HW255882   2.247   5.807   4.211  0.2112  0.2205 -1.3423
18230SOL     OW55883   1.173   7.077   5.423  0.4121 -0.0338  0.2855
18230SOL    HW155884   1.238   7.006   5.419 -0.3746 -0.8583  1.7219
18230SOL    HW255885   1.217   7.146   5.472  0.4432 -0.3305  0.6791
18231SOL     OW55886   4.703   0.096   8.197  0.8132  0.1699  0.2379
18231SOL    HW155887   4.730   0.049   8.118 -0.3024 -1.1325  0.5953
18231SOL    HW255888   4.694   0.028   8.263 -3.4321  0.3398  0.1322
18232SOL     OW55889   7.593   0.851   4.530 -0.1447  0.1985 -0.7847
18232SOL    HW155890   7.663   0.825   4.470 -0.9195 -1.3754 -1.0326
18232SOL    HW255891   7.632   0.921   4.582  1.8712 -1.1040 -0.4416
18233SOL     OW55892   2.556   0.644   3.031 -0.9184 -0.1182 -0.1409
18233SOL    HW155893   2.609   0.566   3.015 -1.2688 -0.1026 -1.5122
18233SOL    HW255894   2.475   0.628   2.983 -1.5216  0.5468  0.6218
18234SOL     OW55895   1.297   6.134   5.965  0.2273  0.4116 -0.1464
18234SOL    HW155896   1.232   6.138   5.895  2.3899 -1.3347 -2.4769
18234SOL    HW255897   1.332   6.223   5.970  0.6379  0.3926 -1.9996
18235SOL     OW55898   0.559   0.542   1.117  0.2527 -0.0577 -0.0742
18235SOL    HW155899   0.546   0.623   1.067  1.5590  0.0618 -0.2715
18235SOL    HW255900   0.527   0.473   1.060  1.6130  0.0858 -1.0817
18236SOL     OW55901   8.431   5.978   0.541 -0.3372  0.4675  0.2609
18236SOL    HW155902   8.370   5.965   0.469  0.2431 -1.6423  0.0854
18236SOL    HW255903   8.512   6.009   0.500  0.7084 -2.7711 -0.3935
18237SOL     OW55904   3.202   0.616   0.116 -0.4967 -0.0842 -0.3217
18237SOL    HW155905   3.220   0.583   0.028 -1.2580 -0.8309 -0.2072
18237SOL    HW255906   3.268   0.574   0.171 -1.0668 -0.9537 -0.2793
18238SOL     OW55907   2.218   0.283   0.066 -0.5313 -0.1818  0.2256
18238SOL    HW155908   2.179   0.288   0.153 -0.1594 -1.7079  0.5053
18238SOL    HW255909   2.156   0.232   0.014  0.0526 -0.7528  0.0746
18239SOL     OW55910   0.311   1.464   6.950 -0.5140  0.2690 -0.4350
18239SOL    HW155911   0.374   1.434   7.015 -0.0124  0.3549 -0.8687
18239SOL    HW255912   0.227   1.461   6.994 -0.4551 -1.5093 -0.3559
18240SOL     OW55913   4.799   6.720   6.890 -0.7512 -0.4466 -0.6693
18240SOL    HW155914   4.761   6.671   6.962 -1.1665 -1.3795 -1.4989
18240SOL    HW255915   4.851   6.655   6.842 -1.8556 -0.2638 -2.1738
18241SOL     OW55916   3.678   2.246   7.989  0.1214 -0.1954  0.4288
18241SOL    HW155917   3.671   2.152   7.969  1.5386 -0.3132  0.3455
18241SOL    HW255918   3.758   2.274   7.943 -1.8217  1.7542 -2.0469
18242SOL     OW55919   5.448   2.501   3.513 -0.0848  0.3478  0.1441
18242SOL    HW155920   5.369   2.554   3.521 -0.8872 -0.8191  0.1853
18242SOL    HW255921   5.426   2.419   3.556  1.3018  0.1427  0.5267
18243SOL     OW55922   1.683   0.012   4.429 -0.1262  0.5143  0.6266
18243SOL    HW155923   1.725   0.098   4.437 -0.6003  0.7913  0.1515
18243SOL    HW255924   1.589   0.030   4.434 -0.2420  0.0749  0.0567
18244SOL     OW55925   2.275   3.067   2.936 -0.2499 -0.3629 -0.2973
18244SOL    HW155926   2.200   3.029   2.982  0.7033 -0.5401  1.1629
18244SOL    HW255927   2.271   3.160   2.956  0.8460 -0.6095  1.1974
18245SOL     OW55928   6.394   0.596   8.289 -0.3406 -0.3926  0.1714
18245SOL    HW155929   6.350   0.681   8.278 -0.3958 -0.1617  1.9212
18245SOL    HW255930   6.393   0.558   8.201 -2.4349  0.3893 -0.2121
18246SOL     OW55931   1.331   3.056   6.129  0.1064 -0.4024 -0.5812
18246SOL    HW155932   1.290   2.998   6.064  0.8367  0.0726 -1.4893
18246SOL    HW255933   1.294   3.143   6.110  0.8115 -0.1431 -0.7931
18247SOL     OW55934   5.340   8.003   5.183  0.0419  0.3229 -0.2685
18247SOL    HW155935   5.279   7.931   5.196 -0.9505  1.0799 -0.6297
18247SOL    HW255936   5.391   7.978   5.106  0.8121 -0.7086  0.5384
18248SOL     OW55937   1.272   5.855   8.182  0.6302  0.2962  0.0754
18248SOL    HW155938   1.299   5.810   8.102  1.2511  2.6080 -1.0892
18248SOL    HW255939   1.353   5.892   8.218  0.1993  0.1933  1.1929
18249SOL     OW55940   3.010   4.106   1.645 -0.2016  0.2719  0.3210
18249SOL    HW155941   2.925   4.086   1.607 -0.7532  0.1842  1.5670
18249SOL    HW255942   3.073   4.064   1.586 -1.0083  0.3482 -0.6142
18250SOL     OW55943   8.487   2.117   7.951  0.1986  0.7323  0.2962
18250SOL    HW155944   8.402   2.102   7.992  0.4052  0.3863  0.6033
18250SOL    HW255945   8.467   2.134   7.860 -0.2000  0.6228  0.3619
18251SOL     OW55946   5.746   5.314   4.312 -0.4754  0.5534  0.4220
18251SOL    HW155947   5.778   5.323   4.402  2.4863  0.3040 -0.4942
18251SOL    HW255948   5.808   5.364   4.259 -1.9859  0.4751 -1.5290
18252SOL     OW55949   0.987   2.670   2.451 -0.5926 -0.3891 -0.2297
18252SOL    HW155950   0.916   2.642   2.508 -1.1915 -1.6151 -1.5192
18252SOL    HW255951   0.947   2.737   2.395 -0.0967  0.5773  0.5555
18253SOL     OW55952   4.231   2.898   0.731  0.1472 -0.0686 -0.0620
18253SOL    HW155953   4.225   2.930   0.641 -2.5719  1.8975  0.6668
18253SOL    HW255954   4.152   2.931   0.773  0.0205 -3.1067  2.4256
18254SOL     OW55955   0.709   3.901   6.936 -0.4705  0.3717 -0.0919
18254SOL    HW155956   0.785   3.921   6.991 -0.4727  1.3127 -0.4161
18254SOL    HW255957   0.642   3.870   6.998 -0.5417  1.6065  0.4702
18255SOL     OW55958   6.701   2.999   4.407  0.7616  0.1367 -0.0953
18255SOL    HW155959   6.712   3.075   4.350 -1.5983  3.4212  3.3815
18255SOL    HW255960   6.786   2.989   4.451  0.4667  2.4719  1.1495
18256SOL     OW55961   8.592   8.314   0.723 -0.1042  0.4269 -0.5372
18256SOL    HW155962   8.555   8.363   0.797  0.7013  2.4293 -1.3988
18256SOL    HW255963   8.681   8.347   0.714  0.5255 -1.3165 -1.1182
18257SOL     OW55964   3.765   2.985   1.310 -0.1015 -0.4386 -0.5490
18257SOL    HW155965   3.826   2.987   1.237 -1.5836  1.7453 -1.8368
18257SOL    HW255966   3.684   2.948   1.274 -1.5669  2.6313 -0.7830
18258SOL     OW55967   7.710   4.797   0.774  0.3223 -0.0625  0.3310
18258SOL    HW155968   7.763   4.783   0.852  1.6033 -0.6304 -0.6072
18258SOL    HW255969   7.717   4.891   0.756  1.0895 -0.1493  0.1639
18259SOL     OW55970   1.038   0.734   7.525 -0.2674  0.3291 -0.0439
18259SOL    HW155971   0.955   0.692   7.500 -0.0715  0.2419 -0.5462
18259SOL    HW255972   1.068   0.778   7.445  0.3602  0.0488  0.0317
18260SOL     OW55973   3.724   5.532   1.076  0.3029  0.1672  0.2216
18260SOL    HW155974   3.640   5.519   1.033  0.4302  0.4329 -0.1156
18260SOL    HW255975   3.703   5.579   1.157  0.2954  1.9747 -0.7784
18261SOL     OW55976   8.153   3.771   4.672  0.1770 -0.0782  0.9257
18261SOL    HW155977   8.111   3.857   4.664  0.5725  0.0322 -0.1745
18261SOL    HW255978   8.188   3.770   4.761 -1.8204 -0.0416  1.7546
18262SOL     OW55979   0.221   8.018   8.066  0.1190 -0.3287  0.1961
18262SOL    HW155980   0.302   8.021   8.015  0.0993  1.8508  0.2208
18262SOL    HW255981   0.152   8.018   8.001  0.0887 -2.1615  0.1757
18263SOL     OW55982   6.548   2.082   6.734  0.5706  0.5902 -0.2843
18263SOL    HW155983   6.615   2.035   6.784 -0.5668 -1.4275 -0.5293
18263SOL    HW255984   6.556   2.049   6.645  0.0412  1.2170 -0.5751
18264SOL     OW55985   5.420   2.582   7.860  0.2282  0.6772  0.6382
18264SOL    HW155986   5.456   2.656   7.810 -0.9493  0.7332 -0.1462
18264SOL    HW255987   5.327   2.580   7.838  0.3054 -1.2974  0.3325
18265SOL     OW55988   7.420   4.270   2.057  0.0477  0.5506 -0.0149
18265SOL    HW155989   7.326   4.251   2.049  0.2399 -0.3363 -0.2203
18265SOL    HW255990   7.451   4.210   2.125  1.1347 -1.6225 -2.2910
18266SOL     OW55991   2.355   2.826   0.179 -0.2820 -0.1838 -0.0354
18266SOL    HW155992   2.357   2.921   0.174 -1.0867 -0.1182  0.7969
18266SOL    HW255993   2.423   2.804   0.243  0.9719 -0.2793 -1.3480
18267SOL     OW55994   1.697   0.549   6.479 -0.1159  0.0538  0.6626
18267SOL    HW155995   1.793   0.551   6.479 -0.1087  0.8073 -0.2972
18267SOL    HW255996   1.673   0.548   6.571  0.8187 -0.2372  0.9135
18268SOL     OW55997   6.927   4.643   3.923 -0.4197  0.1307  0.0543
18268SOL    HW155998   6.948   4.611   3.835 -0.3372 -0.3273  0.2417
18268SOL    HW255999   6.976   4.726   3.930  1.0550 -0.7221  0.3349
18269SOL     OW56000   0.953   6.109   1.307 -0.0646  0.1458  0.2762
18269SOL    HW156001   0.929   6.130   1.217  0.7689 -0.3592 -0.0799
18269SOL    HW256002   1.037   6.064   1.299  0.4656  0.9021  1.3815
18270SOL     OW56003   5.163   7.312   2.156 -0.0110 -0.6471 -0.1152
18270SOL    HW156004   5.160   7.399   2.195 -0.9550 -0.3175 -0.8953
18270SOL    HW256005   5.243   7.311   2.104  0.9177 -0.8643  1.2668
18271SOL     OW56006   2.634   1.181   7.472 -0.0250 -0.2121 -0.6761
18271SOL    HW156007   2.722   1.194   7.435 -0.8671 -0.8492 -3.0180
18271SOL    HW256008   2.576   1.178   7.397 -2.3244  1.7713  0.8693
18272SOL     OW56009   4.193   2.018   1.490 -0.3409  0.3090  0.0613
18272SOL    HW156010   4.269   1.996   1.436 -0.1186 -0.3171  0.6107
18272SOL    HW256011   4.136   1.942   1.484 -0.8362  0.6976 -0.1883
18273SOL     OW56012   4.120   7.067   6.257  0.0168  0.8921 -0.6591
18273SOL    HW156013   4.177   7.056   6.181 -0.6714 -1.4389 -0.9161
18273SOL    HW256014   4.119   7.162   6.273  2.4176  1.1650 -1.7788
18274SOL     OW56015   3.643   7.756   7.219 -0.9187  0.0477  0.1742
18274SOL    HW156016   3.646   7.725   7.128  1.9990  1.0071 -0.1685
18274SOL    HW256017   3.634   7.676   7.270 -1.7707 -0.5925 -0.9270
18275SOL     OW56018   4.735   0.537   0.079  0.3772  0.1568 -0.3546
18275SOL    HW156019   4.650   0.561   0.117  0.5862  1.9873 -0.9661
18275SOL    HW256020   4.714   0.468   0.016 -0.2577 -1.3603  1.4267
18276SOL     OW56021   0.491   1.514   5.042  0.0619  0.2000  0.2188
18276SOL    HW156022   0.526   1.601   5.024  2.1877 -0.8142 -0.9295
18276SOL    HW256023   0.567   1.456   5.033 -1.1151 -1.6844  1.8063
18277SOL     OW56024   1.746   3.810   3.599  0.1888 -0.1330  0.4762
18277SOL    HW156025   1.720   3.797   3.507 -1.6896  2.6901  0.4764
18277SOL    HW256026   1.685   3.756   3.649 -0.6441  0.4624  0.1325
18278SOL     OW56027   7.022   3.512   5.857 -0.0807  0.1715 -0.3514
18278SOL    HW156028   6.968   3.591   5.854 -0.8974 -0.2963  0.9514
18278SOL    HW256029   6.958   3.440   5.854  0.5003 -0.4012  0.5439
18279SOL     OW56030   2.104   3.672   1.900 -0.0571 -0.0740  0.2528
18279SOL    HW156031   2.061   3.705   1.980 -2.9750 -2.9027  0.0922
18279SOL    HW256032   2.154   3.596   1.930  1.9229  1.0187 -0.1563
18280SOL     OW56033   5.457   3.985   2.551  0.5917  0.2436 -0.0514
18280SOL    HW156034   5.431   4.073   2.577 -1.8325 -0.2902 -0.4114
18280SOL    HW256035   5.420   3.928   2.619  2.4971 -0.5379  0.4220
18281SOL     OW56036   2.280   5.316   2.176  0.2372 -0.0182 -0.5835
18281SOL    HW156037   2.226   5.342   2.250 -2.0389 -1.3423 -1.6746
18281SOL    HW256038   2.290   5.221   2.186  1.5746  0.0650 -0.9355
18282SOL     OW56039   6.865   0.708   7.611 -0.4470 -0.2974  0.1043
18282SOL    HW156040   6.847   0.755   7.692 -0.7869 -0.8805  0.3743
18282SOL    HW256041   6.794   0.732   7.552  1.3160  2.4835 -1.1137
18283SOL     OW56042   2.881   3.873   0.315 -0.5239 -0.5112 -0.2676
18283SOL    HW156043   2.828   3.853   0.392 -1.9418  0.0623 -1.0517
18283SOL    HW256044   2.947   3.803   0.313 -1.1240 -1.1496  0.8493
18284SOL     OW56045   0.319   3.659   7.498 -0.0730  0.2637  0.0560
18284SOL    HW156046   0.238   3.673   7.449  0.4057  0.0033 -0.8238
18284SOL    HW256047   0.293   3.669   7.590 -1.0513  0.4106 -0.2228
18285SOL     OW56048   3.273   1.612   4.299  0.1039 -0.1226  0.5608
18285SOL    HW156049   3.245   1.522   4.282 -1.2809  0.3627  0.2052
18285SOL    HW256050   3.211   1.646   4.363 -0.1104  0.9427 -0.1728
18286SOL     OW56051   3.743   6.079   1.606 -0.5991  0.5776 -0.4208
18286SOL    HW156052   3.703   6.025   1.538 -1.8746  2.5236 -1.2834
18286SOL    HW256053   3.808   6.131   1.560 -1.8649  2.3239 -0.3122
18287SOL     OW56054   1.194   7.693   3.539  0.6375 -0.2027  0.3501
18287SOL    HW156055   1.168   7.654   3.623 -0.0981 -0.4570  0.0150
18287SOL    HW256056   1.163   7.784   3.544 -0.1755 -0.4592  0.0173
18288SOL     OW56057   5.352   0.763   2.442 -0.0452 -0.5564 -0.3525
18288SOL    HW156058   5.285   0.765   2.374 -0.0020  1.9341 -0.4125
18288SOL    HW256059   5.431   0.733   2.397 -0.1959  0.3343 -1.2353
18289SOL     OW56060   0.135   7.500   0.492 -0.1035  0.4569 -0.0134
18289SOL    HW156061   0.219   7.528   0.531 -0.6292  1.5684  0.3540
18289SOL    HW256062   0.123   7.558   0.417 -0.6909  0.5222  0.1260
18290SOL     OW56063   1.300   2.561   7.135 -0.3462 -0.3974  0.1772
18290SOL    HW156064   1.388   2.530   7.153  0.1360  1.2017  0.7786
18290SOL    HW256065   1.243   2.488   7.159  0.7855 -1.2776  0.2400
18291SOL     OW56066   5.117   6.404   0.499  0.0394 -0.1004 -0.2009
18291SOL    HW156067   5.208   6.431   0.490 -0.4758  2.4331  1.3443
18291SOL    HW256068   5.119   6.332   0.562  0.8726  0.7740  0.8057
18292SOL     OW56069   5.477   3.446   5.141 -0.2719 -0.3245 -0.5342
18292SOL    HW156070   5.562   3.488   5.133 -0.4148 -0.1175 -0.9952
18292SOL    HW256071   5.483   3.394   5.221  0.4354 -0.6598 -0.7969
18293SOL     OW56072   3.189   4.640   0.186  0.1024  0.3509  0.0837
18293SOL    HW156073   3.141   4.621   0.106 -0.2660  0.8417  0.1838
18293SOL    HW256074   3.123   4.638   0.255  0.6974 -1.8762  0.6675
18294SOL     OW56075   2.969   6.347   4.243  0.1647 -0.0216  0.0741
18294SOL    HW156076   2.899   6.400   4.280 -0.6196 -0.1293 -1.2093
18294SOL    HW256077   3.036   6.345   4.312 -0.3525  1.4884  0.6752
18295SOL     OW56078   3.349   6.170   8.491 -0.7423  0.2433 -0.3431
18295SOL    HW156079   3.400   6.239   8.534 -0.8755  0.2160 -0.1411
18295SOL    HW256080   3.357   6.094   8.548  0.2772 -0.2404 -1.0924
18296SOL     OW56081   0.307   1.551   4.498 -0.0236 -0.1197 -0.1559
18296SOL    HW156082   0.294   1.645   4.496 -0.7680 -0.1977 -2.2612
18296SOL    HW256083   0.368   1.534   4.425 -1.5031 -1.4077 -1.1750
18297SOL     OW56084   0.406   6.830   2.652 -0.2230 -0.3574  0.0676
18297SOL    HW156085   0.444   6.761   2.597 -0.4177  0.2082 -0.7935
18297SOL    HW256086   0.324   6.793   2.685 -0.2293 -0.6104 -0.2318
18298SOL     OW56087   0.277   8.460   8.405  0.3171 -0.1726 -0.4875
18298SOL    HW156088   0.207   8.523   8.394 -0.0721 -0.3428  0.7930
18298SOL    HW256089   0.357   8.513   8.411  0.0028  0.2119  0.5157
18299SOL     OW56090   3.889   1.904   1.349  0.3155  1.3947 -0.2793
18299SOL    HW156091   3.794   1.900   1.356  0.3810 -0.2873  0.0546
18299SOL    HW256092   3.906   1.980   1.294 -1.2500  1.3142 -0.9239
18300SOL     OW56093   4.314   3.323   5.514 -0.3474 -0.2791 -0.5813
18300SOL    HW156094   4.369   3.252   5.546 -1.1174 -2.0358 -2.8798
18300SOL    HW256095   4.228   3.306   5.554 -0.3912 -0.3512 -0.7026
18301SOL     OW56096   3.834   1.840   0.019  0.3950 -0.5293 -0.0341
18301SOL    HW156097   3.909   1.783   0.002  1.3629  0.9491 -0.9397
18301SOL    HW256098   3.767   1.781   0.054  1.9515 -1.9080  0.7993
18302SOL     OW56099   2.548   7.046   6.570 -0.7175 -0.1236 -0.2192
18302SOL    HW156100   2.558   7.141   6.574 -2.0866  0.0991 -1.3158
18302SOL    HW256101   2.506   7.023   6.652 -0.2794  0.1988  0.0997
18303SOL     OW56102   7.963   6.078   0.690  0.0340 -0.3015  0.4155
18303SOL    HW156103   7.946   6.062   0.597  0.1792  3.2224 -0.3590
18303SOL    HW256104   8.052   6.047   0.703  0.1819 -0.4358 -0.7383
18304SOL     OW56105   3.132   7.382   1.005 -0.2827 -0.0060  0.3045
18304SOL    HW156106   3.202   7.402   0.942  0.0908 -0.9118  0.4034
18304SOL    HW256107   3.104   7.467   1.038  0.5647  0.4006  0.0235
18305SOL     OW56108   7.167   1.742   6.829 -0.1770 -0.0238  0.9331
18305SOL    HW156109   7.252   1.784   6.840 -0.6890  1.9580 -1.8621
18305SOL    HW256110   7.109   1.811   6.798 -1.8395 -2.1360 -1.0034
18306SOL     OW56111   1.443   2.720   2.452 -0.1119 -0.0530 -0.3306
18306SOL    HW156112   1.410   2.630   2.459  0.3679 -0.2606 -0.7418
18306SOL    HW256113   1.503   2.729   2.525 -0.6205  0.1379  0.0740
18307SOL     OW56114   1.499   7.089   6.732  0.3174 -0.2581 -0.4259
18307SOL    HW156115   1.435   7.126   6.673 -0.4546 -0.3410  0.3450
18307SOL    HW256116   1.578   7.142   6.719 -0.3337  0.7447 -0.3598
18308SOL     OW56117   7.236   4.758   0.364 -0.1516  0.5233 -0.4792
18308SOL    HW156118   7.288   4.744   0.443 -1.5749 -1.0847  0.2335
18308SOL    HW256119   7.297   4.800   0.303  1.4412  0.3599  0.9041
18309SOL     OW56120   2.513   8.549   2.882  0.1438  0.2799  0.2078
18309SOL    HW156121   2.444   8.494   2.845  0.1733  1.3838 -1.5854
18309SOL    HW256122   2.557   8.587   2.806  2.7481 -0.3629  1.2762
18310SOL     OW56123   4.785   5.755   8.006 -0.0792  0.3238  0.5172
18310SOL    HW156124   4.717   5.703   7.964  0.2494  1.2849 -1.2964
18310SOL    HW256125   4.748   5.844   8.010  0.0516  0.3507  1.9734
18311SOL     OW56126   6.420   3.282   1.570  0.1174 -0.3378  0.1144
18311SOL    HW156127   6.352   3.312   1.631 -0.0037  1.1912 -0.7419
18311SOL    HW256128   6.398   3.190   1.555 -0.7406 -0.3404  1.1913
18312SOL     OW56129   0.312   2.394   4.773 -0.2702  0.1048  0.3706
18312SOL    HW156130   0.261   2.470   4.744  1.4091  1.9625  1.9622
18312SOL    HW256131   0.314   2.402   4.868  1.5897 -0.7967  0.4561
18313SOL     OW56132   2.581   6.213   3.185 -0.0410  0.4553  0.0114
18313SOL    HW156133   2.557   6.305   3.195 -1.0929  0.5108 -2.4692
18313SOL    HW256134   2.637   6.210   3.108 -0.7586 -1.0764 -0.4958
18314SOL     OW56135   3.631   5.603   3.517  0.5408 -0.6101 -0.0566
18314SOL    HW156136   3.555   5.655   3.543  0.0840 -1.7247  0.9669
18314SOL    HW256137   3.678   5.657   3.454  0.6030  1.4002  1.6409
18315SOL     OW56138   2.704   0.225   6.712 -0.2653  0.2182  0.5916
18315SOL    HW156139   2.763   0.223   6.637 -0.6636 -2.4969  0.2791
18315SOL    HW256140   2.619   0.250   6.675 -0.0536  0.8357  0.5010
18316SOL     OW56141   8.013   2.462   4.672 -0.4654  0.6110  0.0214
18316SOL    HW156142   8.097   2.415   4.672 -0.8018 -0.0043  0.1198
18316SOL    HW256143   8.024   2.530   4.606 -0.1911 -0.0355 -0.6182
18317SOL     OW56144   6.360   7.101   1.614 -0.5690  0.0121 -0.7134
18317SOL    HW156145   6.269   7.130   1.623 -0.7398 -0.7705  0.3178
18317SOL    HW256146   6.406   7.145   1.686 -0.8514 -2.1910  0.9394
18318SOL     OW56147   2.245   6.577   5.129  0.4069 -0.3481 -0.3013
18318SOL    HW156148   2.245   6.672   5.138 -1.0744 -0.3652  0.1836
18318SOL    HW256149   2.158   6.550   5.160  0.5925 -1.8069 -0.9631
18319SOL     OW56150   7.028   4.061   5.653  0.1101  0.3100  0.2957
18319SOL    HW156151   7.085   3.984   5.646 -0.1296  0.0647  0.9320
18319SOL    HW256152   6.953   4.042   5.597  0.6442  0.6328 -0.5439
18320SOL     OW56153   7.809   4.142   2.593 -0.2761 -0.1991  0.1264
18320SOL    HW156154   7.767   4.228   2.588  0.4436  0.0937 -1.3038
18320SOL    HW256155   7.858   4.144   2.675 -0.6858  0.5571  0.3619
18321SOL     OW56156   2.362   6.687   1.420  0.2736  0.4374 -0.2795
18321SOL    HW156157   2.293   6.751   1.437 -0.7062 -1.0243  1.5372
18321SOL    HW256158   2.406   6.676   1.504 -0.0498 -1.7379 -0.3359
18322SOL     OW56159   7.605   4.882   8.245  0.1235 -0.1274 -0.0141
18322SOL    HW156160   7.576   4.973   8.237  0.8287  0.0355 -0.9455
18322SOL    HW256161   7.547   4.834   8.186  0.0136 -0.2221  0.1705
18323SOL     OW56162   5.389   5.562   2.995  0.2515  0.1249  0.9106
18323SOL    HW156163   5.434   5.502   3.054  1.4638 -0.4741 -0.5415
18323SOL    HW256164   5.323   5.507   2.952 -0.2183  0.4113  1.2590
18324SOL     OW56165   3.458   2.420   7.342 -0.7028 -0.0592 -0.4210
18324SOL    HW156166   3.410   2.367   7.406 -0.5149  2.5880  2.1543
18324SOL    HW256167   3.391   2.479   7.306 -0.1807  0.7836 -0.0327
18325SOL     OW56168   0.469   2.455   4.127 -0.0424 -0.5699 -0.1981
18325SOL    HW156169   0.392   2.463   4.071 -0.4485 -0.9309  0.3034
18325SOL    HW256170   0.541   2.442   4.066 -0.3298  0.0531 -0.6852
18326SOL     OW56171   8.494   2.385   0.756 -0.1963 -0.4489  0.4446
18326SOL    HW156172   8.505   2.380   0.661  0.6620  0.3239  0.4860
18326SOL    HW256173   8.399   2.396   0.768 -0.2820 -0.2540 -0.3365
18327SOL     OW56174   7.508   5.337   6.894 -0.2033 -0.0194 -0.2352
18327SOL    HW156175   7.451   5.412   6.883 -0.3734 -0.2479 -0.9217
18327SOL    HW256176   7.473   5.271   6.835 -0.7585 -1.0618  1.1991
18328SOL     OW56177   4.064   5.282   4.002 -0.5150  0.0041  0.5808
18328SOL    HW156178   4.007   5.338   4.053 -3.0078 -1.9306  0.1555
18328SOL    HW256179   4.060   5.318   3.913  0.5532  1.0062  0.9206
18329SOL     OW56180   4.952   0.582   3.280  0.4542 -0.0052 -0.5188
18329SOL    HW156181   4.860   0.608   3.287  0.3215 -0.5430 -0.2182
18329SOL    HW256182   4.990   0.643   3.217  0.0063  0.5264 -0.2760
18330SOL     OW56183   0.568   8.352   7.988  0.0706  0.0070 -0.5392
18330SOL    HW156184   0.661   8.340   7.968  0.6623  0.5068  1.6359
18330SOL    HW256185   0.559   8.321   8.078 -1.3559  2.1972  0.1377
18331SOL     OW56186   6.278   2.106   5.328  0.3415  0.0171 -0.0077
18331SOL    HW156187   6.293   2.077   5.418  1.3437 -3.1913 -1.0825
18331SOL    HW256188   6.345   2.173   5.313  0.1797  0.5774  1.5772
18332SOL     OW56189   6.491   7.334   4.605 -0.3314  0.1049 -0.2132
18332SOL    HW156190   6.477   7.274   4.678  0.4654  0.9402  0.6437
18332SOL    HW256191   6.529   7.279   4.536  1.0745 -0.2529  0.8124
18333SOL     OW56192   1.912   7.915   6.599  0.5059 -0.0004 -0.8506
18333SOL    HW156193   1.866   7.996   6.622  0.1650  0.4008 -2.7662
18333SOL    HW256194   1.841   7.852   6.584  0.6991 -0.1787 -1.0119
18334SOL     OW56195   0.695   2.617   7.489  0.7028 -0.6487  0.0092
18334SOL    HW156196   0.613   2.594   7.447  0.9109 -0.4803 -0.4905
18334SOL    HW256197   0.761   2.608   7.421  1.2066 -1.4919  0.5859
18335SOL     OW56198   1.602   1.190   6.878  0.3441  0.2130  0.7122
18335SOL    HW156199   1.661   1.261   6.902  0.7874 -0.4903  1.7858
18335SOL    HW256200   1.522   1.234   6.850 -1.1785  1.2910  5.6680
18336SOL     OW56201   6.723   7.824   6.835 -0.2891 -0.1115 -0.7899
18336SOL    HW156202   6.752   7.783   6.917  1.6726  1.0055 -0.8728
18336SOL    HW256203   6.698   7.751   6.779 -0.3857 -0.9645  0.3311
18337SOL     OW56204   8.067   6.849   0.956 -0.1136  0.2477 -0.2855
18337SOL    HW156205   7.983   6.808   0.975 -0.9959  1.8083 -0.6446
18337SOL    HW256206   8.059   6.882   0.866  0.6674  0.8931 -0.1409
18338SOL     OW56207   0.456   0.401   6.624  0.0065 -0.0298 -0.8156
18338SOL    HW156208   0.541   0.425   6.660  0.7268 -0.6775 -2.0550
18338SOL    HW256209   0.396   0.469   6.657  1.2595  1.2627 -1.1320
18339SOL     OW56210   6.926   3.184   1.824  0.1650  0.5021  0.2102
18339SOL    HW156211   7.008   3.191   1.776 -0.6235 -0.4858 -1.3791
18339SOL    HW256212   6.934   3.247   1.895  1.9718  0.9867 -0.3769
18340SOL     OW56213   2.769   3.896   3.331  0.2861 -0.4109 -0.0834
18340SOL    HW156214   2.837   3.911   3.397  1.7563 -1.3685 -1.3357
18340SOL    HW256215   2.759   3.981   3.287 -0.6969  0.2320  1.2946
18341SOL     OW56216   3.628   4.676   8.492 -0.3159 -0.2364 -0.6578
18341SOL    HW156217   3.598   4.733   8.564 -2.5585 -0.7429 -1.1136
18341SOL    HW256218   3.672   4.604   8.536 -0.2221  0.2717  0.1076
18342SOL     OW56219   1.455   1.539   7.069 -0.1134 -0.2883  0.1151
18342SOL    HW156220   1.505   1.594   7.130  0.9475 -1.5179  0.3897
18342SOL    HW256221   1.513   1.526   6.995 -0.8653  0.0244 -0.5370
18343SOL     OW56222   5.359   5.790   7.187 -0.5520  0.3483  0.0392
18343SOL    HW156223   5.353   5.885   7.191 -1.2284  0.3376 -0.5122
18343SOL    HW256224   5.453   5.772   7.180 -0.5057  1.0896 -1.9030
18344SOL     OW56225   3.029   0.397   6.772 -0.1396  0.0998  0.4373
18344SOL    HW156226   2.947   0.394   6.821 -1.0185  0.5632 -0.9658
18344SOL    HW256227   3.092   0.431   6.835 -1.4664  1.7114  0.9640
18345SOL     OW56228   6.605   7.683   5.909  0.0154  0.3655  0.7807
18345SOL    HW156229   6.666   7.613   5.887 -2.0605 -1.2698 -0.1882
18345SOL    HW256230   6.557   7.700   5.828 -2.3801 -0.1083  2.0004
18346SOL     OW56231   2.345   3.766   0.665 -0.4758 -0.1264 -0.1925
18346SOL    HW156232   2.378   3.676   0.662 -0.3890 -0.1918  1.5902
18346SOL    HW256233   2.250   3.757   0.671 -0.6879 -0.0003 -2.5425
18347SOL     OW56234   1.224   2.320   2.337 -0.1361  0.4944  0.0783
18347SOL    HW156235   1.207   2.297   2.428  0.3004  1.7806  0.4971
18347SOL    HW256236   1.168   2.260   2.287 -2.0879  1.2448  1.2418
18348SOL     OW56237   4.340   1.342   7.206 -0.0399  0.4510 -0.4554
18348SOL    HW156238   4.340   1.412   7.272 -0.0998  0.5456 -0.5555
18348SOL    HW256239   4.261   1.292   7.224 -0.9225  1.4351 -1.4660
18349SOL     OW56240   1.556   8.459   4.211 -0.2787 -0.4701  0.0398
18349SOL    HW156241   1.505   8.501   4.280 -0.0516 -2.1774  1.3219
18349SOL    HW256242   1.595   8.532   4.163 -0.4148  0.8025  1.7422
18350SOL     OW56243   4.500   4.877   7.525  0.5349 -0.0307 -0.2358
18350SOL    HW156244   4.450   4.872   7.606  0.4811 -1.3041 -0.3292
18350SOL    HW256245   4.438   4.850   7.457  0.0277  2.7447 -1.0014
18351SOL     OW56246   8.022   3.383   2.193 -0.1451  0.6628  0.5211
18351SOL    HW156247   8.061   3.405   2.278 -0.7840 -0.7658  1.2214
18351SOL    HW256248   8.097   3.372   2.135  0.3027  1.6502  0.8813
18352SOL     OW56249   2.825   7.361   1.681  0.0118 -0.5311 -0.7398
18352SOL    HW156250   2.783   7.406   1.755 -0.2336  0.1269 -1.2720
18352SOL    HW256251   2.754   7.348   1.618  0.8374  2.0930 -2.3802
18353SOL     OW56252   6.988   8.014   4.834 -0.4713 -0.3579 -0.3678
18353SOL    HW156253   7.071   8.060   4.820 -0.6988  0.2725  0.3191
18353SOL    HW256254   7.006   7.951   4.904 -0.4834 -0.4584 -0.4545
18354SOL     OW56255   7.980   0.818   7.391 -0.0800 -0.6616 -0.3865
18354SOL    HW156256   7.907   0.820   7.329 -0.0711 -0.6774 -0.3974
18354SOL    HW256257   7.941   0.787   7.473  0.0234 -1.1761 -0.5308
18355SOL     OW56258   0.053   6.532   5.740 -0.4383 -0.2627  0.3957
18355SOL    HW156259   0.107   6.581   5.801  1.2034  0.3812 -1.4657
18355SOL    HW256260   0.061   6.579   5.657 -1.6099 -1.7484 -0.6244
18356SOL     OW56261   5.748   4.200   5.637  0.8347 -0.2437 -0.1906
18356SOL    HW156262   5.664   4.159   5.616 -1.2010  2.6410  1.4978
18356SOL    HW256263   5.752   4.201   5.732  2.2389  0.6960 -0.2208
18357SOL     OW56264   7.346   6.470   1.684  0.7454  0.6304  0.1589
18357SOL    HW156265   7.323   6.403   1.749  0.2988  0.1836 -0.4435
18357SOL    HW256266   7.441   6.476   1.689  0.7184  0.5490  0.8080
18358SOL     OW56267   5.270   7.363   4.385  0.9263  0.2439 -0.3191
18358SOL    HW156268   5.254   7.379   4.292  0.2464 -1.9856 -0.6414
18358SOL    HW256269   5.194   7.401   4.429 -0.1651 -1.1219 -0.9492
18359SOL     OW56270   7.098   0.282   4.891 -0.2801  0.1878  0.5539
18359SOL    HW156271   7.019   0.271   4.837 -0.4444  1.6658  0.4685
18359SOL    HW256272   7.077   0.239   4.973  0.2082 -2.7096 -0.7032
18360SOL     OW56273   6.051   8.352   4.496 -0.8173  0.1932  0.3293
18360SOL    HW156274   6.004   8.323   4.574 -1.2855 -0.4918 -0.1923
18360SOL    HW256275   6.050   8.448   4.501 -0.0356  0.1567  1.6191
18361SOL     OW56276   4.750   6.273   3.569 -0.2820  0.1920  0.5359
18361SOL    HW156277   4.754   6.197   3.510 -1.2347 -0.3365  1.1278
18361SOL    HW256278   4.657   6.286   3.587 -0.0050 -0.8797  3.4063
18362SOL     OW56279   1.288   7.090   7.716 -0.2983  0.1306  0.2959
18362SOL    HW156280   1.262   6.999   7.700  1.4897 -0.2566 -0.5910
18362SOL    HW256281   1.282   7.132   7.630  1.6250  0.0877  0.0947
18363SOL     OW56282   4.113   6.696   6.727 -0.2946 -0.5468  0.2338
18363SOL    HW156283   4.127   6.748   6.648 -0.1188 -0.2562  0.4521
18363SOL    HW256284   4.037   6.641   6.707 -1.5445  0.9767  0.5875
18364SOL     OW56285   2.279   1.390   3.983  0.1978  0.3011  0.5339
18364SOL    HW156286   2.341   1.462   3.969 -0.9032  1.5993  1.9220
18364SOL    HW256287   2.251   1.366   3.895 -0.0396  2.2123  0.0276
18365SOL     OW56288   7.981   3.026   7.080  0.3275  0.8040 -0.2107
18365SOL    HW156289   7.916   2.973   7.034  1.9549 -0.6112 -0.9845
18365SOL    HW256290   7.952   3.117   7.067  1.1745  0.6229 -4.9547
18366SOL     OW56291   0.965   4.979   3.574  0.1566  0.5183 -0.3340
18366SOL    HW156292   0.883   4.940   3.606 -1.6344  3.1736 -1.3012
18366SOL    HW256293   0.986   4.928   3.496  0.7035 -1.5658  1.0917
18367SOL     OW56294   1.933   8.243   4.540 -0.3950 -0.3563 -0.7517
18367SOL    HW156295   1.845   8.281   4.531  0.1652  1.2570  0.0447
18367SOL    HW256296   1.992   8.315   4.516  0.7361 -2.0769 -3.4987
18368SOL     OW56297   5.115   4.350   1.868  0.0320  0.1220  0.0821
18368SOL    HW156298   5.174   4.413   1.909 -0.9735  0.6449  0.7854
18368SOL    HW256299   5.128   4.269   1.918 -0.4468  0.4723  0.7929
18369SOL     OW56300   2.881   5.607   5.626  0.3795 -0.0737 -0.1313
18369SOL    HW156301   2.813   5.646   5.572  1.6065  0.3738 -1.4046
18369SOL    HW256302   2.867   5.643   5.713  0.1196  1.4831 -0.7892
18370SOL     OW56303   1.951   7.176   6.844  0.1003 -0.1006 -0.0261
18370SOL    HW156304   1.961   7.085   6.872  1.4781 -0.4462 -1.5275
18370SOL    HW256305   2.009   7.226   6.901 -0.1869 -0.2335  0.3892
18371SOL     OW56306   0.931   6.996   5.656  0.0537  0.5542  0.0921
18371SOL    HW156307   0.956   7.075   5.608  1.2514 -0.1786 -0.5395
18371SOL    HW256308   1.012   6.946   5.663 -0.6684 -0.5831  0.5608
18372SOL     OW56309   2.514   3.630   0.970 -0.4197  0.5165  0.4622
18372SOL    HW156310   2.480   3.635   1.059  0.9980  0.6928  1.0224
18372SOL    HW256311   2.528   3.722   0.945 -0.4031  0.4496  0.2239
18373SOL     OW56312   0.268   0.265   2.051 -0.2537 -0.5136 -0.3908
18373SOL    HW156313   0.261   0.190   1.991 -1.8711 -1.1516  0.5206
18373SOL    HW256314   0.360   0.266   2.078 -0.1746 -2.1539 -0.4726
18374SOL     OW56315   6.348   1.470   8.000  0.7190  0.0913 -0.0611
18374SOL    HW156316   6.261   1.460   7.962  1.3058 -2.6775 -0.9773
18374SOL    HW256317   6.367   1.563   7.993 -1.2838  0.4518 -1.9170
18375SOL     OW56318   0.797   3.185   5.257  0.0995  0.3923 -0.2833
18375SOL    HW156319   0.891   3.200   5.247  0.1296  1.5884  1.4708
18375SOL    HW256320   0.763   3.268   5.290 -0.8260 -1.3388  3.5473
18376SOL     OW56321   5.618   2.511   8.449 -0.7900  0.4351 -0.0300
18376SOL    HW156322   5.691   2.572   8.443 -1.6635  1.3505 -1.9098
18376SOL    HW256323   5.653   2.437   8.500  0.8451  1.6528  0.6887
18377SOL     OW56324   5.275   7.005   4.973  0.1866  0.0614 -0.6116
18377SOL    HW156325   5.219   7.073   4.936 -1.8077 -2.5288 -2.8017
18377SOL    HW256326   5.351   7.003   4.915  0.9363  1.2612  0.2857
18378SOL     OW56327   3.686   8.255   0.470 -0.5485  0.2660 -0.2341
18378SOL    HW156328   3.743   8.215   0.535  0.2558  1.4380 -0.1876
18378SOL    HW256329   3.597   8.234   0.499 -0.1735 -0.0867  0.6692
18379SOL     OW56330   5.367   6.357   1.861  0.2204 -0.0476 -0.2797
18379SOL    HW156331   5.462   6.356   1.872  0.2823  2.3650 -0.1362
18379SOL    HW256332   5.335   6.407   1.935 -1.3624 -2.0920  0.5075
18380SOL     OW56333   2.630   3.204   4.098 -0.3875 -0.1455 -0.1582
18380SOL    HW156334   2.555   3.170   4.148 -0.1138  1.8568  1.7809
18380SOL    HW256335   2.609   3.183   4.007 -2.9715 -0.2743  0.3720
18381SOL     OW56336   7.640   4.798   3.458  0.5210 -0.1298  0.5658
18381SOL    HW156337   7.687   4.877   3.483  0.5401  0.2656 -0.6830
18381SOL    HW256338   7.644   4.742   3.536  0.6183  1.0339  1.4193
18382SOL     OW56339   8.028   4.595   4.852  0.1228  0.2823  0.5283
18382SOL    HW156340   7.974   4.641   4.917 -0.6054 -1.5819  1.3227
18382SOL    HW256341   8.051   4.513   4.895  1.0255 -0.2834 -0.9833
18383SOL     OW56342   4.259   3.626   6.886 -0.3673  0.6286  0.0637
18383SOL    HW156343   4.347   3.592   6.905 -0.0200  1.5255  0.1181
18383SOL    HW256344   4.242   3.688   6.957 -0.5708  1.2978 -0.5595
18384SOL     OW56345   2.034   3.425   4.558  0.4998  0.8204 -0.1944
18384SOL    HW156346   2.034   3.473   4.641  0.8208  1.3785 -0.5064
18384SOL    HW256347   1.954   3.373   4.560  0.7320  0.4731  0.6651
18385SOL     OW56348   6.514   6.101   6.510  0.2376  0.3276 -0.1829
18385SOL    HW156349   6.462   6.063   6.440 -0.0217  0.9591 -0.3391
18385SOL    HW256350   6.495   6.194   6.506  0.1061  0.3569  0.8129
18386SOL     OW56351   3.150   0.796   5.718  0.1215 -0.3969 -0.1958
18386SOL    HW156352   3.123   0.839   5.799  3.6054  1.2436  0.2556
18386SOL    HW256353   3.099   0.838   5.649 -2.1679 -1.1266  0.9589
18387SOL     OW56354   7.839   6.389   2.093 -0.1764 -0.1607 -0.4901
18387SOL    HW156355   7.907   6.377   2.160 -0.4565  2.6680  0.4393
18387SOL    HW256356   7.888   6.396   2.011  0.6477  1.0306  0.0633
18388SOL     OW56357   7.533   2.243   8.002  0.3470  0.4256  0.9863
18388SOL    HW156358   7.540   2.148   7.992  1.3934  0.5421  0.3888
18388SOL    HW256359   7.600   2.265   8.066  0.4819  0.8172  0.7132
18389SOL     OW56360   1.536   2.446   7.257  0.0604 -0.4260  0.2270
18389SOL    HW156361   1.556   2.399   7.176  1.0933  2.0754 -1.0650
18389SOL    HW256362   1.617   2.441   7.308  0.7622  1.2732 -0.6508
18390SOL     OW56363   0.791   2.910   5.192 -0.1893  0.3561 -0.0785
18390SOL    HW156364   0.781   3.000   5.222  0.2111  1.0049 -1.7916
18390SOL    HW256365   0.713   2.893   5.139  0.0169 -0.0984 -0.2466
18391SOL     OW56366   5.397   6.731   3.218  0.1686 -0.0143 -0.8616
18391SOL    HW156367   5.413   6.805   3.276  0.2663  0.5594 -1.6070
18391SOL    HW256368   5.403   6.654   3.275  0.3076  0.5307 -0.1269
18392SOL     OW56369   1.380   2.671   8.043  0.1237  0.0586 -0.5279
18392SOL    HW156370   1.430   2.590   8.045 -0.5062 -0.3268  0.4972
18392SOL    HW256371   1.296   2.648   8.081  0.4075  1.5049  1.0828
18393SOL     OW56372   0.236   4.211   5.709 -0.5802  0.2601  0.0697
18393SOL    HW156373   0.312   4.220   5.650  0.3178  0.8801  1.2858
18393SOL    HW256374   0.203   4.300   5.719  0.6410  0.5393  2.2195
18394SOL     OW56375   2.336   0.089   5.360 -0.2660  0.3129  0.1470
18394SOL    HW156376   2.284   0.011   5.340  1.5958 -0.8028 -0.5848
18394SOL    HW256377   2.322   0.104   5.453  1.8599 -2.9634  1.1639
18395SOL     OW56378   7.093   4.744   3.355  0.1077 -0.4538 -0.5539
18395SOL    HW156379   7.156   4.677   3.382 -0.3436 -0.7369 -0.1968
18395SOL    HW256380   7.051   4.771   3.436  3.1439  3.2854  0.0764
18396SOL     OW56381   5.326   7.730   1.312  0.4701 -0.1643  0.7478
18396SOL    HW156382   5.250   7.674   1.325  0.4378 -0.3396 -0.1058
18396SOL    HW256383   5.321   7.756   1.220  1.0708  0.3720  0.8563
18397SOL     OW56384   7.872   1.269   7.056  0.1907 -0.7052  0.6193
18397SOL    HW156385   7.958   1.251   7.096 -0.0641 -0.4764  1.2933
18397SOL    HW256386   7.842   1.184   7.025  0.4761 -0.8594  0.7619
18398SOL     OW56387   0.380   3.314   4.135 -0.7142  0.4830  0.0210
18398SOL    HW156388   0.447   3.335   4.200 -1.3283 -1.3091  1.2937
18398SOL    HW256389   0.420   3.248   4.080  0.1237  2.5911 -2.0923
18399SOL     OW56390   2.924   3.558   1.399 -0.8654 -0.2884 -0.4874
18399SOL    HW156391   2.908   3.482   1.455 -1.6874 -1.3934 -2.1425
18399SOL    HW256392   2.849   3.561   1.340  0.8431 -0.3452 -2.7937
18400SOL     OW56393   5.303   4.428   3.855  0.5246 -0.3739 -0.3626
18400SOL    HW156394   5.251   4.448   3.933 -0.0337  0.2583 -0.8862
18400SOL    HW256395   5.245   4.448   3.782  0.9165 -1.3166 -0.9466
18401SOL     OW56396   5.133   6.017   3.978 -0.3445  0.5098  0.5091
18401SOL    HW156397   5.224   5.990   3.973 -0.5420 -0.2227  0.7219
18401SOL    HW256398   5.132   6.106   3.941  0.2064 -0.0587 -0.9618
18402SOL     OW56399   8.378   4.900   7.656 -0.0788 -0.0017  0.1033
18402SOL    HW156400   8.445   4.946   7.707 -0.0563  0.5966 -0.4507
18402SOL    HW256401   8.345   4.833   7.715  2.4880 -1.7534 -0.3008
18403SOL     OW56402   6.807   0.755   6.066  0.0463 -0.0627 -0.0742
18403SOL    HW156403   6.872   0.793   6.008  1.1539 -0.1670  1.0564
18403SOL    HW256404   6.773   0.680   6.018  0.1668  0.4644 -1.0072
18404SOL     OW56405   3.767   8.411   4.751 -0.4017 -0.1877 -0.1015
18404SOL    HW156406   3.705   8.477   4.783 -1.0140 -0.3447 -0.9345
18404SOL    HW256407   3.719   8.363   4.683  0.4804 -0.6089 -0.4501
18405SOL     OW56408   1.380   0.504   2.101 -0.3854 -0.0370  0.1241
18405SOL    HW156409   1.457   0.506   2.044 -0.3915  2.0391  0.1241
18405SOL    HW256410   1.415   0.493   2.189 -0.1543 -0.1559  0.0169
18406SOL     OW56411   6.009   5.053   5.591  0.1628 -0.6186 -0.0067
18406SOL    HW156412   5.961   5.120   5.542  1.2572  0.1765 -0.0209
18406SOL    HW256413   5.946   5.021   5.656 -1.1572 -1.3292 -1.5580
18407SOL     OW56414   1.709   6.696   3.752 -0.1922 -0.0163  0.1128
18407SOL    HW156415   1.656   6.766   3.790 -0.3361  0.1157 -0.3210
18407SOL    HW256416   1.773   6.674   3.819  0.3878  1.1062 -0.0669
18408SOL     OW56417   7.486   2.037   0.588 -0.6638 -0.4051 -0.4108
18408SOL    HW156418   7.517   2.128   0.591  0.7663 -0.8918  0.3278
18408SOL    HW256419   7.565   1.984   0.599 -1.8517 -1.6942  3.2881
18409SOL     OW56420   7.666   4.886   7.436  0.2515  0.3103 -0.1981
18409SOL    HW156421   7.733   4.924   7.492  1.0110  0.4175 -1.1590
18409SOL    HW256422   7.706   4.808   7.399 -0.6153 -0.3500  0.2171
18410SOL     OW56423   2.258   5.990   4.713 -0.3030 -0.2416  0.0718
18410SOL    HW156424   2.340   5.955   4.746 -0.7043 -1.0947  0.2005
18410SOL    HW256425   2.265   5.983   4.618  0.6098  1.6552 -0.0311
18411SOL     OW56426   5.663   6.437   2.946 -0.0158 -0.2318 -0.1410
18411SOL    HW156427   5.603   6.456   2.874  0.5707 -1.1239 -0.8885
18411SOL    HW256428   5.681   6.522   2.986 -1.1575  0.1423 -0.3875
18412SOL     OW56429   5.590   2.552   5.769 -0.4552  0.0154  0.2056
18412SOL    HW156430   5.519   2.572   5.707  0.3711  3.0229  0.0587
18412SOL    HW256431   5.654   2.503   5.717 -0.8420  0.4343 -0.6843
18413SOL     OW56432   6.319   8.433   1.620 -0.4246  0.3764  0.1226
18413SOL    HW156433   6.286   8.350   1.654 -0.6815  0.7793  0.8752
18413SOL    HW256434   6.246   8.494   1.630  0.4123  1.2171  1.5482
18414SOL     OW56435   1.962   2.707   6.489  0.2572 -0.2124 -0.4017
18414SOL    HW156436   2.013   2.764   6.432 -0.2394 -0.3042 -0.9377
18414SOL    HW256437   2.016   2.628   6.499  0.6757  0.1012 -0.1353
18415SOL     OW56438   5.542   3.247   2.352  0.3081 -0.3313  0.1568
18415SOL    HW156439   5.574   3.320   2.300 -0.3972  0.5912  0.9957
18415SOL    HW256440   5.487   3.197   2.292 -3.3161  2.5659  0.7220
18416SOL     OW56441   0.237   7.743   0.625 -0.2425 -0.0965  0.1307
18416SOL    HW156442   0.207   7.776   0.540  0.2914 -0.6323 -0.2719
18416SOL    HW256443   0.246   7.821   0.680  1.3608  0.4893 -0.9080
18417SOL     OW56444   3.575   7.510   7.322  0.3132  0.2022  0.4796
18417SOL    HW156445   3.639   7.485   7.255 -0.3471  0.3338 -0.2186
18417SOL    HW256446   3.505   7.445   7.315  0.9207 -0.6931  2.0988
18418SOL     OW56447   2.044   7.439   6.963  0.0965 -0.2139 -0.2557
18418SOL    HW156448   2.050   7.361   7.018  2.7239 -0.5081 -0.8589
18418SOL    HW256449   2.041   7.512   7.025 -2.0469 -0.7060  0.3021
18419SOL     OW56450   6.533   6.516   8.593 -0.0659  0.1601  0.1965
18419SOL    HW156451   6.593   6.590   8.588  1.0328 -0.5716  1.6641
18419SOL    HW256452   6.559   6.469   8.673 -0.9474 -1.6113 -0.4916
18420SOL     OW56453   0.521   3.240   4.480  0.6580 -0.3839  0.3130
18420SOL    HW156454   0.465   3.179   4.529  2.0417 -0.8214  1.4326
18420SOL    HW256455   0.561   3.294   4.548  1.1275  0.3251 -0.5172
18421SOL     OW56456   6.674   2.376   6.554 -0.1040  0.0169 -0.0999
18421SOL    HW156457   6.602   2.313   6.545  1.1044 -1.1593 -2.3930
18421SOL    HW256458   6.737   2.332   6.611  0.1917 -0.3555 -0.7019
18422SOL     OW56459   3.163   4.740   4.562 -0.6694  0.2683  0.5131
18422SOL    HW156460   3.071   4.717   4.578 -0.8969  0.4377 -0.5138
18422SOL    HW256461   3.206   4.726   4.647 -1.4063 -0.9649  0.6992
18423SOL     OW56462   1.785   6.965   1.132 -0.7467  0.2329  0.2261
18423SOL    HW156463   1.789   6.980   1.038  0.1162  1.4156  0.4254
18423SOL    HW256464   1.694   6.981   1.156 -0.9266  0.1032 -0.3766
18424SOL     OW56465   4.168   3.208   6.667  0.5033 -0.3817 -0.2311
18424SOL    HW156466   4.159   3.284   6.724 -1.7831  0.1518 -1.2091
18424SOL    HW256467   4.256   3.216   6.630  1.0773  0.6271  1.2514
18425SOL     OW56468   4.805   7.071   1.793 -0.0561  0.6599 -0.2208
18425SOL    HW156469   4.820   7.099   1.883  0.2514 -0.4174  0.0818
18425SOL    HW256470   4.893   7.069   1.754 -0.1722  0.9826 -0.5082
18426SOL     OW56471   4.506   4.231   8.031 -0.2063 -0.3903 -0.0457
18426SOL    HW156472   4.463   4.176   7.966  0.8124 -1.6824  0.3324
18426SOL    HW256473   4.580   4.178   8.063 -0.0113  0.6505  1.3398
18427SOL     OW56474   1.315   3.933   1.957 -0.6895  0.5684  0.3237
18427SOL    HW156475   1.310   3.839   1.938 -1.1520  0.6965 -0.2169
18427SOL    HW256476   1.344   3.938   2.048 -0.9269 -0.1022  0.4397
18428SOL     OW56477   5.991   8.198   0.912  0.3337 -0.9615 -0.3307
18428SOL    HW156478   6.080   8.228   0.890  0.7786 -0.4469  1.8498
18428SOL    HW256479   6.005   8.114   0.955 -0.4227 -1.6807 -1.4535
18429SOL     OW56480   3.756   6.519   6.312  0.1592 -0.6630  0.4105
18429SOL    HW156481   3.676   6.570   6.317  0.0289 -0.9069  0.8583
18429SOL    HW256482   3.731   6.432   6.344  0.3617 -1.0257 -0.3968
18430SOL     OW56483   7.174   0.821   4.710  0.4412  0.5755  0.0515
18430SOL    HW156484   7.141   0.903   4.674 -0.1025  0.6210  0.6345
18430SOL    HW256485   7.227   0.783   4.640 -1.4888  0.1086 -1.2525
18431SOL     OW56486   4.309   2.350   3.885  0.3703 -0.7236 -0.1418
18431SOL    HW156487   4.395   2.310   3.871  1.0966  0.5937  0.3438
18431SOL    HW256488   4.328   2.434   3.927 -1.0163  0.5120 -1.8345
18432SOL     OW56489   5.239   7.399   5.993 -0.4397  0.0921  0.9365
18432SOL    HW156490   5.285   7.363   5.917  0.5821  0.6066  1.2946
18432SOL    HW256491   5.185   7.326   6.025 -0.8369 -0.1442 -0.2329
18433SOL     OW56492   5.743   2.361   4.966  0.4500 -0.4741  0.6170
18433SOL    HW156493   5.784   2.325   5.045  0.0426 -0.6821  0.7359
18433SOL    HW256494   5.729   2.285   4.909  3.1081 -0.0522 -0.7869
18434SOL     OW56495   2.357   3.116   8.481 -0.2563  0.0130 -0.2445
18434SOL    HW156496   2.334   3.095   8.572 -0.9343 -1.5765 -0.7547
18434SOL    HW256497   2.422   3.186   8.489 -0.6540  0.2552  1.4429
18435SOL     OW56498   7.098   3.128   0.576  0.2748  0.5643  0.1563
18435SOL    HW156499   7.069   3.036   0.579  0.5366  0.4963  1.1132
18435SOL    HW256500   7.177   3.126   0.522 -0.8276  0.5674 -1.5096
18436SOL     OW56501   8.028   6.710   3.418  0.1047  0.1272  0.3564
18436SOL    HW156502   8.094   6.675   3.357  0.0014 -0.9337  0.8274
18436SOL    HW256503   7.958   6.743   3.361  1.0209  1.2575 -0.1468
18437SOL     OW56504   2.486   6.978   5.953 -0.5698 -0.5350  0.2053
18437SOL    HW156505   2.392   6.993   5.963 -0.5331  0.1687 -0.3876
18437SOL    HW256506   2.499   6.969   5.859 -0.1691 -1.6200  0.3512
18438SOL     OW56507   4.685   0.568   2.189  0.2074 -0.6482  0.3807
18438SOL    HW156508   4.649   0.628   2.124  0.7649  1.0232  1.5742
18438SOL    HW256509   4.771   0.544   2.154  0.6557  0.5207  0.6397
18439SOL     OW56510   7.132   6.960   7.081 -1.0137 -0.3907  0.3913
18439SOL    HW156511   7.129   7.051   7.052 -0.7170  0.4540  2.7658
18439SOL    HW256512   7.223   6.946   7.107 -1.2826 -1.0088  1.0448
18440SOL     OW56513   4.089   4.013   0.459  1.2411 -0.0686 -0.2221
18440SOL    HW156514   4.156   4.076   0.485  1.1200 -0.4655  1.1020
18440SOL    HW256515   4.008   4.046   0.497  0.1941  1.4678 -3.4017
18441SOL     OW56516   2.558   1.619   0.398  0.3894 -0.1091 -0.1400
18441SOL    HW156517   2.516   1.705   0.396  1.3495  0.3773 -2.4177
18441SOL    HW256518   2.510   1.568   0.333 -0.5984 -1.5832  1.6445
18442SOL     OW56519   5.726   6.746   7.834  0.0941 -0.4099 -1.3242
18442SOL    HW156520   5.788   6.810   7.869 -1.9896  0.2228  1.6403
18442SOL    HW256521   5.781   6.674   7.804  2.3242  0.5599  0.1129
18443SOL     OW56522   1.807   4.071   5.645  0.6556 -0.0221  0.4471
18443SOL    HW156523   1.807   4.009   5.718 -1.2816  1.5334  1.8750
18443SOL    HW256524   1.795   4.018   5.567 -0.9551 -1.4531  1.6175
18444SOL     OW56525   6.479   1.936   7.730  0.1219  0.0057  0.6777
18444SOL    HW156526   6.502   1.983   7.810 -0.6190  0.0263  0.8819
18444SOL    HW256527   6.534   1.858   7.731  1.1926  0.7387  0.4559
18445SOL     OW56528   4.327   7.897   3.718 -0.1010  0.2933  0.0598
18445SOL    HW156529   4.310   7.818   3.768 -1.2130  0.0278 -0.6942
18445SOL    HW256530   4.366   7.867   3.636 -1.0662  0.4388 -0.4810
18446SOL     OW56531   6.518   5.654   2.358 -0.2494  0.0760  0.5115
18446SOL    HW156532   6.545   5.689   2.273  0.7354  0.6344  1.0359
18446SOL    HW256533   6.483   5.730   2.405 -1.5836 -0.3916  0.3231
18447SOL     OW56534   7.437   1.071   1.360  0.6425  0.3463 -0.0235
18447SOL    HW156535   7.406   0.983   1.336 -2.3809  0.9861  1.0585
18447SOL    HW256536   7.516   1.055   1.412 -0.2237 -1.8375  0.7644
18448SOL     OW56537   1.671   6.240   5.891 -0.0550 -0.2709 -0.1320
18448SOL    HW156538   1.656   6.165   5.833  0.2792 -1.3730  1.1505
18448SOL    HW256539   1.614   6.309   5.856 -2.9057 -2.1142  0.4845
18449SOL     OW56540   5.525   5.417   3.177  0.4600 -0.2900 -0.3470
18449SOL    HW156541   5.603   5.472   3.181  0.2803  0.1401 -2.0191
18449SOL    HW256542   5.539   5.350   3.244  1.4294  0.8259  0.6004
18450SOL     OW56543   2.163   8.565   0.954 -0.6641  0.7653  0.2977
18450SOL    HW156544   2.225   8.600   0.890 -0.5934 -0.4089 -0.3097
18450SOL    HW256545   2.077   8.591   0.921 -0.6607 -0.2373 -0.5684
18451SOL     OW56546   5.505   5.522   1.766  0.0885 -0.1736  0.2057
18451SOL    HW156547   5.416   5.555   1.776  0.5301  2.1291 -2.2136
18451SOL    HW256548   5.554   5.562   1.838 -0.4988 -0.2003  0.6306
18452SOL     OW56549   7.193   4.432   4.949 -0.1972 -0.3262 -0.3391
18452SOL    HW156550   7.226   4.395   4.867  2.0983  0.2808  0.2417
18452SOL    HW256551   7.252   4.505   4.968 -0.9696 -0.1505  1.6297
18453SOL     OW56552   5.617   3.727   0.367 -0.7010  0.3358  0.2422
18453SOL    HW156553   5.649   3.643   0.400  0.4485  0.7880  0.3364
18453SOL    HW256554   5.526   3.731   0.396 -0.6482 -0.6828  0.6075
18454SOL     OW56555   5.385   7.220   4.562 -0.1263 -0.2870  1.0369
18454SOL    HW156556   5.433   7.295   4.597 -0.8317  0.5803  0.2110
18454SOL    HW256557   5.346   7.252   4.481  0.5207 -1.9092  0.0419
18455SOL     OW56558   5.344   5.826   2.956  0.0585  0.3305 -0.0886
18455SOL    HW156559   5.249   5.815   2.945 -0.0155  0.6087  0.2335
18455SOL    HW256560   5.377   5.738   2.973 -0.0887  0.1760 -0.5885
18456SOL     OW56561   2.200   0.852   3.831 -0.0536 -0.3746  0.0941
18456SOL    HW156562   2.168   0.898   3.908 -2.6791 -2.7066  0.5617
18456SOL    HW256563   2.124   0.803   3.799  1.8453 -2.2473 -1.8911
18457SOL     OW56564   4.528   5.423   7.576  0.8186 -0.3132  0.1080
18457SOL    HW156565   4.499   5.353   7.635  1.7643 -2.8538 -2.2512
18457SOL    HW256566   4.560   5.491   7.635  1.5912 -2.6098  2.5659
18458SOL     OW56567   8.338   2.408   5.538 -0.0957 -0.7351  0.5719
18458SOL    HW156568   8.351   2.344   5.608  2.9386 -0.2878  0.5774
18458SOL    HW256569   8.375   2.489   5.572  1.2028 -0.4233 -1.3749
18459SOL     OW56570   5.085   8.490   5.449 -0.0920 -0.2704  0.0008
18459SOL    HW156571   5.138   8.413   5.467  1.5502  0.7695 -0.2321
18459SOL    HW256572   5.011   8.457   5.398 -1.3664 -2.2184  2.8501
18460SOL     OW56573   3.541   5.882   7.903 -0.0117  0.1131 -0.5403
18460SOL    HW156574   3.546   5.937   7.825  0.9554 -0.4153 -0.8739
18460SOL    HW256575   3.571   5.796   7.873 -0.8554 -0.4255  0.1246
18461SOL     OW56576   4.252   4.208   3.513  0.1549 -0.0256  0.3062
18461SOL    HW156577   4.161   4.182   3.532  0.3473 -2.4053 -1.4732
18461SOL    HW256578   4.245   4.265   3.436  0.1726 -0.6330 -0.1545
18462SOL     OW56579   3.067   0.678   5.336 -0.1711 -0.2109 -0.2136
18462SOL    HW156580   3.135   0.618   5.367 -0.4852 -1.5169 -1.8944
18462SOL    HW256581   3.115   0.755   5.305  0.2780  0.2135  1.4368
18463SOL     OW56582   0.071   1.845   6.238  0.4514 -0.5334  0.0543
18463SOL    HW156583   0.133   1.835   6.165  1.4193 -1.7334  1.0055
18463SOL    HW256584   0.054   1.939   6.241  1.6083 -0.2682 -0.7544
18464SOL     OW56585   1.830   1.492   7.291 -0.1291  0.2259 -0.6715
18464SOL    HW156586   1.846   1.523   7.380  1.6360  0.3809 -1.0198
18464SOL    HW256587   1.831   1.396   7.299  0.1205  0.2394 -0.5469
18465SOL     OW56588   0.061   3.017   4.567 -0.6913  0.1473 -0.4261
18465SOL    HW156589   0.060   2.961   4.490 -2.2550 -0.1564 -0.2175
18465SOL    HW256590   0.006   3.092   4.543  1.8813  2.0049 -0.9445
18466SOL     OW56591   4.256   7.517   6.652 -0.0553  0.5223  0.3117
18466SOL    HW156592   4.171   7.490   6.689  0.5260 -2.1289 -0.0770
18466SOL    HW256593   4.255   7.612   6.659 -3.4637  0.7079 -0.5279
18467SOL     OW56594   8.296   3.782   7.812 -0.0760  0.1209  0.6731
18467SOL    HW156595   8.229   3.743   7.867 -0.5219  0.0612  0.0943
18467SOL    HW256596   8.336   3.849   7.867 -0.0448 -0.4041  1.3013
18468SOL     OW56597   7.157   5.894   3.004  0.2582 -0.5276 -0.2496
18468SOL    HW156598   7.082   5.951   3.014 -0.3626 -1.1378 -1.3045
18468SOL    HW256599   7.192   5.915   2.917  1.7090  0.2029  0.4741
18469SOL     OW56600   5.302   6.637   4.790 -0.1909  0.3433 -0.4829
18469SOL    HW156601   5.254   6.685   4.722 -1.6030  0.0565  0.2953
18469SOL    HW256602   5.248   6.561   4.809  0.7292 -0.1528  0.2133
18470SOL     OW56603   8.277   0.846   4.161  0.4674 -0.0676 -0.2559
18470SOL    HW156604   8.363   0.826   4.123  1.0950  0.4989  0.8171
18470SOL    HW256605   8.220   0.859   4.085  1.4149 -0.0736 -0.9945
18471SOL     OW56606   4.717   2.673   8.358  0.5418  0.4610  0.1377
18471SOL    HW156607   4.715   2.670   8.262  1.6234  0.0740  0.1071
18471SOL    HW256608   4.666   2.750   8.381 -1.9882 -0.8997 -0.6073
18472SOL     OW56609   2.816   3.512   2.771  0.4334  0.3839 -1.0144
18472SOL    HW156610   2.909   3.517   2.792  0.5159  0.3287 -1.3620
18472SOL    HW256611   2.801   3.585   2.711  0.1415  0.7034 -0.5642
18473SOL     OW56612   5.534   5.037   7.466 -0.2689  0.4690  0.4781
18473SOL    HW156613   5.628   5.056   7.475  0.5239 -1.2575 -2.8748
18473SOL    HW256614   5.506   5.090   7.392 -0.8335 -2.1163 -1.2842
18474SOL     OW56615   6.935   3.581   2.648 -0.2733 -0.5023  0.1784
18474SOL    HW156616   6.943   3.508   2.709 -1.1960 -0.9544 -0.2273
18474SOL    HW256617   6.842   3.586   2.628 -0.0437 -0.1054 -0.8721
18475SOL     OW56618   8.044   0.509   7.583 -0.9240  0.5380  0.4837
18475SOL    HW156619   8.035   0.511   7.487 -1.1002  3.4159  0.4895
18475SOL    HW256620   8.135   0.530   7.599 -1.0684  0.7815  0.9768
18476SOL     OW56621   2.295   1.984   6.810  0.1543 -0.0514 -0.5350
18476SOL    HW156622   2.371   2.031   6.845  1.0463 -0.5350 -1.7660
18476SOL    HW256623   2.271   2.033   6.731  0.3604 -0.9635 -1.1793
18477SOL     OW56624   2.907   5.080   0.894  0.1333  0.1588  0.3410
18477SOL    HW156625   2.874   5.067   0.805  2.5454  0.9339 -0.7247
18477SOL    HW256626   2.951   4.997   0.915  1.3623  0.6991 -0.0365
18478SOL     OW56627   6.830   6.499   6.236  0.6944  0.3022  0.4887
18478SOL    HW156628   6.920   6.529   6.247  0.9433  0.9077 -2.4339
18478SOL    HW256629   6.837   6.417   6.187 -0.3357 -0.6399  1.7985
18479SOL     OW56630   8.356   8.090   7.677 -0.2327  0.6490 -0.4704
18479SOL    HW156631   8.366   8.131   7.763 -0.6579 -0.2932  0.0418
18479SOL    HW256632   8.308   8.155   7.625  0.4413  1.4192 -0.1520
18480SOL     OW56633   1.317   0.453   7.578 -0.3026  0.5710 -0.1617
18480SOL    HW156634   1.282   0.480   7.663  2.3350  2.4650  0.4461
18480SOL    HW256635   1.371   0.377   7.598  0.9034  1.4557  0.0290
18481SOL     OW56636   4.400   5.864   4.311  0.7247 -0.2040 -0.1954
18481SOL    HW156637   4.326   5.924   4.326  0.2990 -0.6458 -0.4825
18481SOL    HW256638   4.366   5.800   4.248  0.9416 -1.1362  0.6036
18482SOL     OW56639   0.617   4.167   5.245 -0.6639 -0.1321  0.1097
18482SOL    HW156640   0.563   4.090   5.261 -2.1937  0.6866 -0.8913
18482SOL    HW256641   0.684   4.137   5.183 -1.0434 -0.7287 -0.0128
18483SOL     OW56642   5.359   5.074   8.240  0.2802 -0.3568 -0.1918
18483SOL    HW156643   5.393   5.064   8.329  0.1933  0.1016 -0.1022
18483SOL    HW256644   5.352   4.985   8.207  2.2511 -0.4716 -0.4722
18484SOL     OW56645   2.197   4.705   8.367  0.3896 -0.2966 -0.3786
18484SOL    HW156646   2.232   4.793   8.350  0.4211  0.2300  2.1380
18484SOL    HW256647   2.272   4.647   8.353  0.7635  0.2167 -0.5611
18485SOL     OW56648   1.459   7.672   3.423 -0.0726  0.9131  0.1130
18485SOL    HW156649   1.532   7.705   3.475 -0.8522  1.8928  0.6196
18485SOL    HW256650   1.381   7.699   3.471 -0.7772  0.0630 -0.5290
18486SOL     OW56651   6.568   3.827   1.101 -0.3163  0.2860 -0.2814
18486SOL    HW156652   6.570   3.920   1.122  0.7622  0.7108 -2.0355
18486SOL    HW256653   6.538   3.823   1.010 -0.8458 -1.1250 -0.0760
18487SOL     OW56654   6.746   3.411   8.417 -0.0938  0.0262  0.0589
18487SOL    HW156655   6.688   3.468   8.467  0.2148  0.7210 -0.3687
18487SOL    HW256656   6.821   3.397   8.474 -1.0701 -1.6700  1.0218
18488SOL     OW56657   2.569   4.341   2.329  0.0918  0.5512 -0.0754
18488SOL    HW156658   2.529   4.322   2.244  0.4780  2.4974 -0.7470
18488SOL    HW256659   2.501   4.388   2.377  0.0262 -0.1638  0.5461
18489SOL     OW56660   7.090   6.546   0.576 -0.1324 -0.4459 -0.2871
18489SOL    HW156661   7.140   6.523   0.654 -0.4286 -0.2202 -0.0293
18489SOL    HW256662   7.011   6.492   0.581 -3.2465  3.7272  2.8349
18490SOL     OW56663   6.774   5.768   6.773  0.2563 -0.4089  0.0195
18490SOL    HW156664   6.704   5.834   6.774  0.8615  0.3148 -1.6744
18490SOL    HW256665   6.845   5.810   6.725  1.7891 -1.2263  1.5043
18491SOL     OW56666   5.123   1.634   0.312  0.3999 -0.1124 -0.2604
18491SOL    HW156667   5.195   1.698   0.309  0.1062  0.3242  1.3465
18491SOL    HW256668   5.148   1.568   0.247  2.3458 -0.0569  0.3433
18492SOL     OW56669   5.224   8.290   7.981 -0.7250 -0.0505 -0.4366
18492SOL    HW156670   5.171   8.363   7.948  1.3508  2.4563  1.3864
18492SOL    HW256671   5.180   8.263   8.061 -0.2708  0.8057  0.1131
18493SOL     OW56672   6.115   5.530   3.571 -0.1193 -0.2667 -0.4710
18493SOL    HW156673   6.066   5.594   3.623  1.6743  1.3074 -0.6215
18493SOL    HW256674   6.082   5.542   3.482  0.7584  1.0873 -0.6475
18494SOL     OW56675   0.018   6.710   6.589  0.2201 -0.1441  0.2339
18494SOL    HW156676  -0.030   6.777   6.541  1.3373  1.4965  1.2710
18494SOL    HW256677   0.068   6.663   6.522 -0.7597 -0.1017 -0.5449
18495SOL     OW56678   6.451   8.311   6.598 -0.1615 -0.1031  0.5214
18495SOL    HW156679   6.379   8.294   6.538  0.5327  0.6834 -0.5836
18495SOL    HW256680   6.440   8.402   6.624  1.9139  1.0051 -1.9143
18496SOL     OW56681   1.260   0.830   0.908  0.0717  0.1378 -0.2563
18496SOL    HW156682   1.289   0.911   0.867 -0.5995  1.0256  0.9767
18496SOL    HW256683   1.205   0.857   0.981 -0.0004 -1.4227  0.3217
18497SOL     OW56684   4.056   3.786   2.693  0.0349  0.0817  0.1736
18497SOL    HW156685   4.083   3.696   2.712  3.0007  0.8087 -0.0436
18497SOL    HW256686   4.039   3.786   2.599  0.5880 -0.1671  0.0649
18498SOL     OW56687   6.507   3.365   5.687  0.6884  0.1110  0.0639
18498SOL    HW156688   6.426   3.412   5.709  2.0538  2.3552  0.5752
18498SOL    HW256689   6.501   3.283   5.736 -1.6658 -0.2398 -0.6598
18499SOL     OW56690   2.738   4.477   2.905  0.4129  0.0485  0.3447
18499SOL    HW156691   2.814   4.530   2.879 -0.5212  1.0721 -0.4069
18499SOL    HW256692   2.770   4.387   2.905  1.8895  0.5394  1.0183
18500SOL     OW56693   2.828   5.048   7.870  0.4664  0.1212  0.1287
18500SOL    HW156694   2.921   5.050   7.894 -0.0920  1.1750  2.4265
18500SOL    HW256695   2.797   4.963   7.899  0.3101  0.5070  1.1249
18501SOL     OW56696   5.572   1.604   0.679 -0.0858 -0.1588 -0.4505
18501SOL    HW156697   5.493   1.574   0.634 -0.1386 -1.0901  0.2199
18501SOL    HW256698   5.555   1.586   0.772  0.3138  1.0376 -0.1249
18502SOL     OW56699   3.251   6.859   3.425  0.2411  0.1957 -0.0598
18502SOL    HW156700   3.185   6.797   3.454  0.2912 -0.1089 -0.5781
18502SOL    HW256701   3.303   6.810   3.361 -1.1293  1.4231 -2.2285
18503SOL     OW56702   5.704   8.048   6.221  0.2306 -0.0226 -0.3847
18503SOL    HW156703   5.730   7.985   6.153 -1.1007  1.1914 -2.1080
18503SOL    HW256704   5.610   8.038   6.229  0.4113 -0.4776  1.7184
18504SOL     OW56705   4.950   8.169   6.483 -0.1103  0.6309  0.0808
18504SOL    HW156706   4.860   8.159   6.454 -0.1726  0.8322  0.1985
18504SOL    HW256707   4.949   8.139   6.574  0.4317 -1.6350 -0.5856
18505SOL     OW56708   1.111   8.418   1.298  0.7156 -0.1844  0.4446
18505SOL    HW156709   1.034   8.397   1.350  1.5167  0.7688  2.1058
18505SOL    HW256710   1.080   8.419   1.207 -0.5583 -2.6511  0.7807
18506SOL     OW56711   5.748   3.970   2.572 -0.2063 -0.0864 -0.0002
18506SOL    HW156712   5.811   4.024   2.620 -0.4838 -1.3804  1.9371
18506SOL    HW256713   5.679   3.951   2.635 -1.0764 -1.1193 -1.1973
18507SOL     OW56714   1.129   3.131   0.218  0.1787  0.3962 -0.4992
18507SOL    HW156715   1.139   3.223   0.242 -0.0563  0.2969  0.0031
18507SOL    HW256716   1.201   3.087   0.263 -0.8444  0.0684  0.8715
18508SOL     OW56717   2.979   4.640   8.600  0.0402 -0.4041 -0.2353
18508SOL    HW156718   2.918   4.580   8.643  0.5741 -1.0440 -0.3420
18508SOL    HW256719   2.939   4.726   8.609 -1.4047 -0.9354 -1.2385
18509SOL     OW56720   6.672   8.515   3.839  0.0664 -0.7476  0.2524
18509SOL    HW156721   6.705   8.532   3.927  1.0840  0.5545 -0.3499
18509SOL    HW256722   6.585   8.556   3.838  0.6763  0.5885  0.1989
18510SOL     OW56723   2.995   2.899   6.043  0.1751  0.1340 -0.4957
18510SOL    HW156724   2.986   2.994   6.053 -0.6720  0.1805 -1.5119
18510SOL    HW256725   3.069   2.888   5.983 -0.3339  0.1941 -1.1394
18511SOL     OW56726   6.112   4.132   4.444 -0.0369 -0.0517 -0.7080
18511SOL    HW156727   6.202   4.109   4.468 -0.7504 -1.9954  0.4079
18511SOL    HW256728   6.068   4.145   4.528 -0.8770  0.5000 -1.2250
18512SOL     OW56729   4.809   8.367   4.710  0.1816 -0.4005 -0.2338
18512SOL    HW156730   4.736   8.324   4.665 -0.3072 -1.6794  1.6717
18512SOL    HW256731   4.887   8.338   4.663 -0.3672 -0.9198 -0.8356
18513SOL     OW56732   3.807   3.242   6.516  0.1402  0.3276  0.5708
18513SOL    HW156733   3.828   3.231   6.608 -1.7325  0.6860  1.0986
18513SOL    HW256734   3.729   3.188   6.503 -0.1846  1.0305 -0.5520
18514SOL     OW56735   7.607   8.478   7.767  1.0061 -0.2552 -0.1318
18514SOL    HW156736   7.562   8.484   7.851 -0.8228  0.3656 -1.0968
18514SOL    HW256737   7.666   8.403   7.776 -0.4127 -1.2723  1.1275
18515SOL     OW56738   2.792   7.153   1.878 -0.7650 -0.5740  0.0263
18515SOL    HW156739   2.839   7.212   1.819 -0.9607 -0.7893 -0.3538
18515SOL    HW256740   2.813   7.183   1.966  1.4666 -1.6851 -0.0595
18516SOL     OW56741   4.690   1.760   4.446 -0.0965 -0.5860  0.0008
18516SOL    HW156742   4.701   1.827   4.378  0.2509 -0.3394  0.2941
18516SOL    HW256743   4.744   1.687   4.416  1.8713  0.3634  1.0970
18517SOL     OW56744   4.201   7.477   0.338  0.5116 -0.1122 -0.2576
18517SOL    HW156745   4.184   7.383   0.331  1.9734 -0.4655  0.5291
18517SOL    HW256746   4.136   7.518   0.280 -0.9662 -1.5061  0.3504
18518SOL     OW56747   6.496   5.482   7.762  0.0781  0.0636  0.1099
18518SOL    HW156748   6.402   5.470   7.767  0.1418  0.1348  2.2265
18518SOL    HW256749   6.530   5.446   7.844  1.8024  0.8187 -0.2205
18519SOL     OW56750   4.030   0.924   0.496  0.5175  0.3724 -0.0561
18519SOL    HW156751   4.042   0.988   0.426  2.5944 -1.2674 -1.3097
18519SOL    HW256752   3.974   0.857   0.458  0.0801  0.3920  0.5350
18520SOL     OW56753   8.001   2.832   0.127  0.0538  0.4345  0.4570
18520SOL    HW156754   7.970   2.797   0.210  0.9742  0.8016  0.9679
18520SOL    HW256755   8.082   2.878   0.149  1.5687 -1.4006 -0.9795
18521SOL     OW56756   3.360   5.972   0.097  0.1026 -0.0849 -0.2397
18521SOL    HW156757   3.300   5.906   0.133 -0.9000  0.9347 -0.0134
18521SOL    HW256758   3.440   5.962   0.150  0.5210 -2.0814 -1.1497
18522SOL     OW56759   7.378   2.198   6.866 -0.1395  0.4941  0.3168
18522SOL    HW156760   7.347   2.166   6.781 -0.9622 -1.3642  1.2708
18522SOL    HW256761   7.461   2.151   6.880  0.5725  1.6329  0.0770
18523SOL     OW56762   1.791   5.362   7.727 -0.2954 -0.3648  0.1051
18523SOL    HW156763   1.722   5.339   7.664 -0.4645  0.4680 -0.0319
18523SOL    HW256764   1.744   5.378   7.809 -0.1638 -0.6426  0.2372
18524SOL     OW56765   1.552   3.495   5.303  0.1179  0.2344 -0.2361
18524SOL    HW156766   1.470   3.502   5.254 -1.4876  2.1937  2.4610
18524SOL    HW256767   1.604   3.432   5.253 -2.1950  0.4073 -3.1650
18525SOL     OW56768   2.630   0.363   5.154 -0.2030  0.1988 -0.3463
18525SOL    HW156769   2.716   0.406   5.152 -0.4777  0.9677  1.8105
18525SOL    HW256770   2.613   0.349   5.247 -2.1936 -0.4533 -0.7702
18526SOL     OW56771   1.021   8.137   4.575 -0.1141  0.4158  0.1619
18526SOL    HW156772   1.115   8.137   4.556 -0.1073 -1.1833  0.0197
18526SOL    HW256773   0.997   8.229   4.578  0.9292  0.8868 -2.5699
18527SOL     OW56774   2.201   4.202   3.228 -0.3227  0.5334  0.1463
18527SOL    HW156775   2.153   4.222   3.148  1.3794  0.4442 -0.9466
18527SOL    HW256776   2.292   4.227   3.209  0.6689 -2.0563  1.0480
18528SOL     OW56777   5.309   2.058   2.134  0.0396  0.1191 -0.2359
18528SOL    HW156778   5.219   2.090   2.130 -0.3622 -1.0343 -2.8361
18528SOL    HW256779   5.357   2.125   2.184 -1.8671  1.7399 -0.4686
18529SOL     OW56780   1.346   6.516   5.025 -0.1834  0.1348  0.5568
18529SOL    HW156781   1.344   6.421   5.015  0.1869  0.1883 -0.1148
18529SOL    HW256782   1.380   6.548   4.941  0.1270  0.8290  0.9351
18530SOL     OW56783   8.580   8.363   2.307  0.3370 -0.5413 -0.3661
18530SOL    HW156784   8.618   8.437   2.354 -1.2422  0.2149 -0.2170
18530SOL    HW256785   8.641   8.347   2.235  0.4580  1.2678 -0.7205
18531SOL     OW56786   3.909   1.305   6.291 -0.1281  0.0176  0.0220
18531SOL    HW156787   3.928   1.236   6.228  1.4639  1.0128 -0.6251
18531SOL    HW256788   3.985   1.362   6.290 -2.4805  3.4961 -1.6421
18532SOL     OW56789   0.307   5.794   8.220 -0.0140 -0.0891 -0.1703
18532SOL    HW156790   0.258   5.806   8.139 -0.3502  2.5392  0.3347
18532SOL    HW256791   0.394   5.829   8.202 -0.0746  0.4662  0.5557
18533SOL     OW56792   3.316   7.926   7.119 -0.2010  0.1050 -0.3069
18533SOL    HW156793   3.255   7.931   7.046 -1.3806  0.8716  0.7005
18533SOL    HW256794   3.313   7.834   7.147 -0.4211  0.0060 -0.6491
18534SOL     OW56795   2.106   5.674   4.165  0.0243  0.2516 -0.0169
18534SOL    HW156796   2.052   5.721   4.229  1.4451  0.5979  0.9715
18534SOL    HW256797   2.123   5.589   4.205  0.3958  0.2304 -0.2126
18535SOL     OW56798   2.197   0.008   2.031 -0.5135  0.0138  0.6243
18535SOL    HW156799   2.180  -0.062   1.969 -0.9557 -0.2334  1.0147
18535SOL    HW256800   2.257   0.066   1.986 -1.9462  0.6128 -0.5941
18536SOL     OW56801   4.485   3.709   4.230 -0.1326  0.7487  0.2726
18536SOL    HW156802   4.473   3.619   4.261  1.8435  0.3191 -0.1100
18536SOL    HW256803   4.572   3.734   4.260  0.9804  1.1109 -2.9320
18537SOL     OW56804   0.982   2.254   8.019 -0.3713 -0.2351 -0.0583
18537SOL    HW156805   0.961   2.165   8.049 -0.7078 -0.6827 -1.5817
18537SOL    HW256806   0.928   2.268   7.942  0.2007  1.0374 -0.2616
18538SOL     OW56807   2.696   8.280   3.726 -0.3404  0.2425 -0.7772
18538SOL    HW156808   2.758   8.257   3.658  0.9143  0.6716  0.1704
18538SOL    HW256809   2.713   8.373   3.743 -1.3712  0.4146 -0.6274
18539SOL     OW56810   8.590   0.471   8.447  0.4896  0.3869  0.4192
18539SOL    HW156811   8.622   0.416   8.376  0.1492  0.2229  0.3897
18539SOL    HW256812   8.495   0.476   8.432  0.2394 -0.5799  1.4958
18540SOL     OW56813   7.084   2.838   6.746  0.3114 -0.0115  0.0117
18540SOL    HW156814   7.034   2.811   6.669  0.4055 -2.3201  0.6698
18540SOL    HW256815   7.041   2.794   6.819  0.4048  1.8774  1.2795
18541SOL     OW56816   6.796   1.788   4.287  0.6724  0.1452 -0.4215
18541SOL    HW156817   6.713   1.825   4.258 -0.8362 -0.5406  2.5872
18541SOL    HW256818   6.832   1.745   4.209 -2.2840 -0.4109 -1.6045
18542SOL     OW56819   6.383   2.725   5.429 -0.7410 -0.1725 -0.5444
18542SOL    HW156820   6.468   2.761   5.405 -0.4985 -1.0517 -1.0406
18542SOL    HW256821   6.399   2.676   5.510 -0.2462 -2.2337 -1.8078
18543SOL     OW56822   6.502   0.249   5.662 -1.0282  0.5743 -0.0397
18543SOL    HW156823   6.419   0.289   5.689 -1.9108 -1.6674  0.8093
18543SOL    HW256824   6.498   0.160   5.696  1.2914  0.0615 -0.9147
18544SOL     OW56825   0.167   4.909   6.965 -0.1712 -0.1209 -0.4880
18544SOL    HW156826   0.122   4.871   7.040  0.3746  1.6564  0.8094
18544SOL    HW256827   0.256   4.926   6.997 -0.4081  2.2423 -0.9556
18545SOL     OW56828   8.125   5.258   4.404  0.4540 -0.1476 -0.2214
18545SOL    HW156829   8.144   5.349   4.427  1.6098 -0.5035  0.3312
18545SOL    HW256830   8.208   5.225   4.368 -0.3543 -0.5839 -1.7554
18546SOL     OW56831   2.487   2.891   3.002  0.3879 -0.2494 -0.5976
18546SOL    HW156832   2.424   2.952   2.963 -0.4195 -1.8527 -1.8975
18546SOL    HW256833   2.519   2.840   2.928 -0.2023 -2.5285  0.6511
18547SOL     OW56834   6.507   6.442   1.346 -0.5294  0.2964 -0.1264
18547SOL    HW156835   6.486   6.508   1.280 -1.5521 -0.5977 -0.7171
18547SOL    HW256836   6.597   6.415   1.326 -0.4312  0.8362 -0.4391
18548SOL     OW56837   6.502   4.058   4.298 -0.0693  0.0102  0.0091
18548SOL    HW156838   6.434   4.093   4.241  0.0932 -0.0089 -0.1987
18548SOL    HW256839   6.582   4.103   4.270 -0.1937  0.9069  1.0232
18549SOL     OW56840   7.664   0.186   7.080  0.3583  0.1648 -0.3586
18549SOL    HW156841   7.691   0.264   7.032  1.2736  0.7930  1.1048
18549SOL    HW256842   7.741   0.161   7.130 -0.0774 -1.4086 -0.4130
18550SOL     OW56843   3.751   2.583   3.747 -0.2726  0.0492 -0.1012
18550SOL    HW156844   3.694   2.626   3.811  0.8154  3.6941 -1.3487
18550SOL    HW256845   3.700   2.507   3.717 -1.6334 -0.6355  3.4550
18551SOL     OW56846   3.934   2.484   0.820  0.6676 -0.1405  0.0788
18551SOL    HW156847   3.963   2.564   0.865  0.0239  0.2421 -0.1654
18551SOL    HW256848   3.938   2.506   0.727 -2.6503  0.8212  0.0201
18552SOL     OW56849   2.588   8.576   5.795 -0.5360 -0.3484  0.2483
18552SOL    HW156850   2.495   8.554   5.799 -0.1900 -2.0943 -0.3645
18552SOL    HW256851   2.625   8.537   5.874 -0.4324  1.0342  0.9027
18553SOL     OW56852   2.373   2.796   7.487 -0.0525 -0.1653  0.4183
18553SOL    HW156853   2.297   2.846   7.516 -0.2858  0.6113 -1.3839
18553SOL    HW256854   2.393   2.738   7.560 -2.6099 -0.6604  0.8119
18554SOL     OW56855   4.548   8.344   5.499  0.3340 -0.0436 -0.3739
18554SOL    HW156856   4.501   8.426   5.515  0.3817  0.2192 -1.5126
18554SOL    HW256857   4.491   8.277   5.537 -0.7583  0.3194 -1.3202
18555SOL     OW56858   3.874   6.806   5.702 -0.2444  0.1653 -0.1270
18555SOL    HW156859   3.889   6.890   5.658  0.0894 -0.2225 -0.7554
18555SOL    HW256860   3.867   6.829   5.795  0.1417  0.8586 -0.2631
18556SOL     OW56861   8.048   5.347   1.789 -0.2514  0.2548 -0.2477
18556SOL    HW156862   8.141   5.367   1.790 -0.2442  0.2203 -0.1960
18556SOL    HW256863   8.005   5.429   1.767 -0.4964  1.4969  3.9478
18557SOL     OW56864   4.667   4.399   1.971  0.1300  0.4849  0.4914
18557SOL    HW156865   4.578   4.418   2.000 -0.4544 -0.1285 -0.8211
18557SOL    HW256866   4.670   4.303   1.969  0.4585  0.5118 -0.5150
18558SOL     OW56867   7.321   7.156   5.002  0.0515  0.4804 -0.3363
18558SOL    HW156868   7.297   7.090   5.067  1.5095 -2.5681 -2.6408
18558SOL    HW256869   7.246   7.216   5.001 -2.3034 -2.1778  0.6152
18559SOL     OW56870   7.197   1.607   0.440 -0.1924  0.3662 -0.3302
18559SOL    HW156871   7.145   1.527   0.451  0.3429  0.2581  1.9911
18559SOL    HW256872   7.171   1.662   0.514  0.7664  1.5828 -0.8764
18560SOL     OW56873   3.747   6.510   3.059 -0.0289  0.0835  0.2481
18560SOL    HW156874   3.752   6.583   3.121 -0.8631  0.8047 -0.5137
18560SOL    HW256875   3.777   6.547   2.976 -0.3134 -0.4793 -0.1119
18561SOL     OW56876   3.961   5.812   5.343  0.1324  0.4239 -0.3282
18561SOL    HW156877   3.943   5.903   5.367 -0.5507 -0.2223  1.8358
18561SOL    HW256878   4.043   5.816   5.294 -0.2045  2.2436 -0.8386
18562SOL     OW56879   3.449   7.318   8.479 -0.5438 -0.6525 -0.7034
18562SOL    HW156880   3.428   7.225   8.494 -1.8279 -0.1326  0.9569
18562SOL    HW256881   3.388   7.366   8.535  1.3655  1.1500 -0.0355
18563SOL     OW56882   6.748   1.388   3.939  0.0781 -0.5048  0.2646
18563SOL    HW156883   6.677   1.328   3.962  1.2085 -1.5859  1.0594
18563SOL    HW256884   6.727   1.418   3.851 -1.2751 -0.9256  0.4290
18564SOL     OW56885   7.369   2.158   4.497 -0.2038  0.2038  0.6132
18564SOL    HW156886   7.367   2.065   4.518  1.2699  0.3627  1.6409
18564SOL    HW256887   7.349   2.202   4.580  0.8328  0.7976  0.5697
18565SOL     OW56888   1.045   6.952   1.808  0.2054 -0.7375  0.6583
18565SOL    HW156889   0.973   6.914   1.859  1.0316 -2.8886  0.3229
18565SOL    HW256890   1.009   7.034   1.774 -1.1447 -0.3595  2.7670
18566SOL     OW56891   2.533   5.215   2.961 -0.9007 -1.0009 -0.3254
18566SOL    HW156892   2.441   5.233   2.981 -1.0396 -1.6866 -0.3027
18566SOL    HW256893   2.533   5.190   2.868 -0.5732  0.0718 -0.6209
18567SOL     OW56894   6.212   4.566   3.090  0.4758  0.5405  0.7040
18567SOL    HW156895   6.219   4.650   3.134  0.2316 -0.6681  3.2278
18567SOL    HW256896   6.191   4.504   3.160  2.6437 -1.9553 -0.6636
18568SOL     OW56897   5.305   2.456   0.605 -0.2840  0.1330  0.3656
18568SOL    HW156898   5.365   2.387   0.579  0.0502  1.1319 -1.7333
18568SOL    HW256899   5.218   2.418   0.596 -0.0654 -0.3859  0.4469
18569SOL     OW56900   3.200   4.534   4.353  0.0017  0.1271 -0.2663
18569SOL    HW156901   3.211   4.485   4.435 -0.4767 -0.2364 -0.4147
18569SOL    HW256902   3.190   4.625   4.381 -1.1544 -0.1127  0.1571
18570SOL     OW56903   3.605   0.516   1.718  0.3334  0.2372  0.2192
18570SOL    HW156904   3.581   0.603   1.687  1.0540  0.3750  0.0348
18570SOL    HW256905   3.521   0.474   1.738 -0.1500  0.1833 -1.7526
18571SOL     OW56906   8.176   0.583   5.913  0.4828  0.3545 -0.3434
18571SOL    HW156907   8.193   0.498   5.872 -2.6143  0.3903 -2.0103
18571SOL    HW256908   8.081   0.593   5.910  0.6308  3.3228  1.0136
18572SOL     OW56909   5.907   5.519   0.387  0.7385 -0.0858  0.1256
18572SOL    HW156910   5.930   5.495   0.298 -1.5570 -0.0013 -0.5466
18572SOL    HW256911   5.817   5.488   0.399 -0.5137  3.3700  0.9873
18573SOL     OW56912   0.897   7.453   1.064  0.3543  0.2870 -0.2811
18573SOL    HW156913   0.897   7.450   1.160  1.6985  0.3790 -0.2657
18573SOL    HW256914   0.927   7.366   1.038 -3.0636 -0.9179 -0.7314
18574SOL     OW56915   0.201   3.512   5.144 -0.5121  0.5281  0.1824
18574SOL    HW156916   0.216   3.464   5.062  1.0676 -0.8709  1.2192
18574SOL    HW256917   0.125   3.568   5.126 -0.2065  0.2701 -2.2198
18575SOL     OW56918   3.097   3.725   6.488 -0.2927  0.7311  0.4554
18575SOL    HW156919   3.066   3.680   6.566 -3.2445  1.3583 -0.1954
18575SOL    HW256920   3.073   3.817   6.503 -0.9810  0.8464 -1.1748
18576SOL     OW56921   3.232   5.351   6.169  0.2725  0.4852  0.4453
18576SOL    HW156922   3.216   5.257   6.169  0.5441  0.3855 -1.9654
18576SOL    HW256923   3.328   5.359   6.168  0.2680  0.6993 -1.2849
18577SOL     OW56924   6.157   8.201   4.882  0.1636 -0.0190  0.4310
18577SOL    HW156925   6.185   8.280   4.837  1.2840 -0.2132  0.7540
18577SOL    HW256926   6.212   8.197   4.960 -0.2923 -0.7941  0.7221
18578SOL     OW56927   1.010   3.844   1.102  0.3026  0.0357 -0.4767
18578SOL    HW156928   1.075   3.892   1.153 -0.8108  0.7173  0.3399
18578SOL    HW256929   0.992   3.766   1.154 -2.5528  1.8244  1.5144
18579SOL     OW56930   0.896   6.173   4.839  0.4847  0.0022 -0.0520
18579SOL    HW156931   0.802   6.190   4.833  0.2171 -0.8734  1.2135
18579SOL    HW256932   0.913   6.105   4.774  0.7688  1.9187 -2.1064
18580SOL     OW56933   4.562   1.421   1.579  0.2739  0.8855  0.3296
18580SOL    HW156934   4.514   1.354   1.530  0.4236 -1.0407  2.6798
18580SOL    HW256935   4.635   1.374   1.619  1.2725  2.7839  0.8635
18581SOL     OW56936   0.823   6.217   5.685  0.8089  0.4049  0.3733
18581SOL    HW156937   0.852   6.149   5.624  0.7353 -0.8262  1.6310
18581SOL    HW256938   0.792   6.167   5.762 -2.3610  1.6983  0.0862
18582SOL     OW56939   0.891   8.394   1.489 -0.2537  0.4274 -0.0118
18582SOL    HW156940   0.851   8.466   1.440 -3.9873 -0.6925  1.0534
18582SOL    HW256941   0.850   8.315   1.454  0.7231 -0.8346  1.5271
18583SOL     OW56942   5.570   1.865   6.142 -0.1938  0.2242 -0.4297
18583SOL    HW156943   5.553   1.929   6.073 -1.1301  0.0688 -0.3557
18583SOL    HW256944   5.537   1.906   6.222 -1.3295 -0.5601 -0.4688
18584SOL     OW56945   2.203   6.594   2.584  0.3446  0.1966 -0.1311
18584SOL    HW156946   2.215   6.511   2.537 -0.2794  0.9050 -1.6086
18584SOL    HW256947   2.291   6.633   2.586  0.5417 -0.2631  0.0903
18585SOL     OW56948   0.980   7.350   3.061  0.0798 -0.2987 -0.2668
18585SOL    HW156949   0.927   7.327   3.138 -0.9760  0.3413 -0.7801
18585SOL    HW256950   1.059   7.391   3.098  1.2089 -3.0247  0.6022
18586SOL     OW56951   4.124   0.861   1.307  0.0197 -0.3239 -0.2407
18586SOL    HW156952   4.157   0.841   1.219  1.0038  2.9407 -0.7351
18586SOL    HW256953   4.036   0.824   1.308  0.1430 -0.8287 -2.4373
18587SOL     OW56954   4.280   6.608   2.837 -0.1412 -0.0943  0.3683
18587SOL    HW156955   4.327   6.683   2.875 -0.7805  1.1039 -1.0824
18587SOL    HW256956   4.241   6.564   2.912  1.6270  0.0226  1.4329
18588SOL     OW56957   5.743   1.891   2.745  0.0955  0.8727  0.2090
18588SOL    HW156958   5.769   1.831   2.675  0.5059  1.5775 -0.2450
18588SOL    HW256959   5.655   1.861   2.769 -0.9543  1.8527 -2.0307
18589SOL     OW56960   4.044   3.042   3.089 -0.1974  0.1717 -1.0705
18589SOL    HW156961   3.960   3.023   3.131 -0.6206  1.8036 -1.1238
18589SOL    HW256962   4.027   3.035   2.996  1.0052 -4.5832 -1.2133
18590SOL     OW56963   1.472   5.422   7.267  0.7139  0.4633 -0.7133
18590SOL    HW156964   1.472   5.516   7.280  1.0786  0.4389 -0.5309
18590SOL    HW256965   1.564   5.399   7.251  0.7399  0.0385 -0.0066
18591SOL     OW56966   5.715   1.377   0.594 -1.1147  0.7449  0.4275
18591SOL    HW156967   5.677   1.461   0.618 -1.2684  0.0332  2.9412
18591SOL    HW256968   5.755   1.345   0.674 -3.4533 -2.8594  0.3895
18592SOL     OW56969   5.780   7.586   4.333 -0.2009  0.2278  0.3297
18592SOL    HW156970   5.712   7.635   4.287 -0.7237 -0.4840  0.3296
18592SOL    HW256971   5.858   7.641   4.325 -0.7270  0.9804  0.1934
18593SOL     OW56972   7.923   2.700   0.371 -0.4250 -0.4299  0.2243
18593SOL    HW156973   8.008   2.725   0.406  0.5771 -1.8380 -1.0897
18593SOL    HW256974   7.861   2.721   0.442  0.7086  2.3371  0.5151
18594SOL     OW56975   2.608   4.543   7.138  0.1859 -0.5686  0.0946
18594SOL    HW156976   2.615   4.636   7.116  1.6215 -0.9664 -1.3105
18594SOL    HW256977   2.656   4.534   7.220 -1.4201  0.1787  1.1717
18595SOL     OW56978   5.200   0.457   1.425 -0.1661  0.2897 -0.3627
18595SOL    HW156979   5.136   0.392   1.455  0.1505 -0.1645 -0.6561
18595SOL    HW256980   5.254   0.410   1.361  2.6607 -0.4362  2.3074
18596SOL     OW56981   4.846   8.280   3.195  0.5091  0.2243  0.1108
18596SOL    HW156982   4.753   8.293   3.211  0.3027  1.4497 -1.7005
18596SOL    HW256983   4.862   8.188   3.216 -2.0317 -1.1712 -3.1425
18597SOL     OW56984   5.747   6.523   5.261 -0.2208  0.4063  0.6449
18597SOL    HW156985   5.673   6.469   5.288 -0.4378  0.8287  0.9196
18597SOL    HW256986   5.746   6.597   5.323 -0.1500  0.9068  0.0544
18598SOL     OW56987   6.017   1.958   5.837  0.5923 -0.1682 -0.0624
18598SOL    HW156988   6.064   2.034   5.805  1.4703 -0.7437 -0.1705
18598SOL    HW256989   6.062   1.883   5.798 -0.1970 -0.7539  0.1062
18599SOL     OW56990   4.650   4.552   4.331  0.0485 -0.1282 -0.2680
18599SOL    HW156991   4.555   4.545   4.329  0.1017 -1.5185  0.8826
18599SOL    HW256992   4.667   4.643   4.355 -1.0329 -0.2482  1.0515
18600SOL     OW56993   6.227   5.572   7.827  0.5652  0.2360  0.0459
18600SOL    HW156994   6.160   5.605   7.768 -0.8277  2.0389  2.4343
18600SOL    HW256995   6.190   5.492   7.863 -0.5897  1.4380  1.6601
18601SOL     OW56996   4.164   2.162   2.567 -0.1190  0.1018 -0.3752
18601SOL    HW156997   4.132   2.173   2.477 -0.6429  2.0080 -0.0070
18601SOL    HW256998   4.170   2.251   2.601  1.3263 -0.5036  1.0712
18602SOL     OW56999   0.837   4.876   1.465 -0.3843 -0.3287  0.3607
18602SOL    HW157000   0.755   4.920   1.487 -0.0731 -0.1063  1.1007
18602SOL    HW257001   0.880   4.862   1.550  0.9414  0.7150 -0.1067
18603SOL     OW57002   2.414   3.103   3.466  0.1529  0.5352 -0.0251
18603SOL    HW157003   2.497   3.121   3.421  1.1965  1.5856  2.1535
18603SOL    HW257004   2.365   3.185   3.460 -0.4747  0.1205 -0.7361
18604SOL     OW57005   0.004   5.979   4.073  0.3622 -0.2563 -0.3181
18604SOL    HW157006  -0.014   5.943   4.160 -0.9660  0.3751 -0.3225
18604SOL    HW257007   0.082   5.931   4.044  0.2380 -1.1839  0.7992
18605SOL     OW57008   4.629   3.305   3.420 -0.0276  0.6154  0.0429
18605SOL    HW157009   4.725   3.308   3.424  0.0087  0.6566 -0.7137
18605SOL    HW257010   4.608   3.325   3.329 -0.7280 -0.0480  0.0457
18606SOL     OW57011   8.131   4.285   3.358 -0.1772  0.1837  0.1102
18606SOL    HW157012   8.164   4.285   3.448  1.7350 -3.4119 -0.4027
18606SOL    HW257013   8.070   4.212   3.354  0.0150  0.0728 -1.5732
18607SOL     OW57014   7.809   2.872   0.574  0.2665 -0.2231  0.0693
18607SOL    HW157015   7.795   2.826   0.657 -0.4842  0.2462  0.2077
18607SOL    HW257016   7.747   2.945   0.575 -0.5459 -0.8435 -1.3831
18608SOL     OW57017   2.981   7.950   6.517  0.6463 -0.3447 -0.3688
18608SOL    HW157018   3.068   7.938   6.555  1.0175  1.9099 -0.3479
18608SOL    HW257019   2.953   8.036   6.548 -0.1011  0.5249 -3.1351
18609SOL     OW57020   3.844   5.339   7.210 -0.3032  0.3882  0.1145
18609SOL    HW157021   3.924   5.288   7.197 -0.4166  0.2282  0.0409
18609SOL    HW257022   3.773   5.277   7.195 -0.4459  0.1139  1.6870
18610SOL     OW57023   4.518   1.918   0.502 -0.1118 -0.2123  0.0130
18610SOL    HW157024   4.600   1.920   0.551 -1.3500  1.9565  2.1972
18610SOL    HW257025   4.505   2.008   0.472 -2.4025 -0.1011  1.1019
18611SOL     OW57026   2.537   4.042   4.459 -0.3973  0.2526  0.5477
18611SOL    HW157027   2.617   4.068   4.413 -0.8765 -0.6372 -0.8649
18611SOL    HW257028   2.566   4.020   4.548  1.0814 -0.8294 -0.1590
18612SOL     OW57029   4.136   3.620   8.110 -0.4675 -0.2696  0.6605
18612SOL    HW157030   4.058   3.608   8.165  0.1972 -0.1516  1.6656
18612SOL    HW257031   4.159   3.532   8.080 -0.3716 -0.4530  1.2545
18613SOL     OW57032   6.730   7.553   0.755 -0.0389 -0.2937 -0.5762
18613SOL    HW157033   6.658   7.606   0.790 -0.4061  0.3700 -2.2080
18613SOL    HW257034   6.805   7.574   0.810 -0.9920 -0.7024  0.9141
18614SOL     OW57035   1.682   8.063   3.078  0.1751  0.4036  0.4764
18614SOL    HW157036   1.589   8.070   3.098  0.0411 -1.6998  0.8656
18614SOL    HW257037   1.721   8.022   3.155  1.3170  0.6515  0.0606
18615SOL     OW57038   4.684   5.208   0.726 -0.2582 -0.2517  0.1205
18615SOL    HW157039   4.708   5.118   0.706 -1.9106 -0.6673 -0.1341
18615SOL    HW257040   4.768   5.254   0.732  0.6314 -1.8144  0.3950
18616SOL     OW57041   7.177   2.688   2.897 -0.1118 -0.1596 -0.4776
18616SOL    HW157042   7.137   2.693   2.810 -1.3912 -0.8399  0.0419
18616SOL    HW257043   7.162   2.597   2.924 -0.5879  0.2927  0.8412
18617SOL     OW57044   2.499   0.639   7.460 -0.1343 -0.4221  0.2499
18617SOL    HW157045   2.549   0.715   7.490 -0.4201 -0.5884  1.1956
18617SOL    HW257046   2.527   0.568   7.517 -2.2291 -0.2745  1.5900
18618SOL     OW57047   5.739   3.802   0.661 -0.1695  0.2811  0.2646
18618SOL    HW157048   5.823   3.799   0.706 -0.0579  1.3172  0.1474
18618SOL    HW257049   5.746   3.877   0.602  0.5643 -2.3004 -3.2521
18619SOL     OW57050   7.628   7.059   0.674 -0.4072 -0.0347 -0.2902
18619SOL    HW157051   7.541   7.100   0.673 -0.9574 -1.1387  0.5400
18619SOL    HW257052   7.682   7.121   0.723 -0.9436  0.2768 -0.0747
18620SOL     OW57053   6.713   7.672   5.407  0.0649 -0.4713 -0.1329
18620SOL    HW157054   6.769   7.670   5.485  1.5878 -0.5395 -1.1682
18620SOL    HW257055   6.684   7.763   5.401 -1.4606 -0.8001  1.3991
18621SOL     OW57056   5.257   7.671   4.035  0.3036  0.3142 -0.0693
18621SOL    HW157057   5.228   7.676   3.944  0.2367  3.0653  0.0245
18621SOL    HW257058   5.341   7.718   4.036  0.5542 -0.1268  1.2043
18622SOL     OW57059   6.237   7.943   5.733  0.0236  0.3493 -0.6241
18622SOL    HW157060   6.195   7.922   5.816 -2.3572  2.3270 -1.2290
18622SOL    HW257061   6.214   7.869   5.676 -0.2198  0.0695 -0.1708
18623SOL     OW57062   8.373   2.132   7.688  0.4198  0.1657 -0.0110
18623SOL    HW157063   8.376   2.175   7.603  2.2765  0.1942  0.0312
18623SOL    HW257064   8.343   2.043   7.668  0.9854  0.1254 -0.7324
18624SOL     OW57065   3.972   3.327   3.045 -0.3410  0.5737 -0.0757
18624SOL    HW157066   4.002   3.236   3.045  1.3122  1.0538  1.5678
18624SOL    HW257067   3.959   3.348   3.138  0.2660  2.2950 -0.3405
18625SOL     OW57068   3.303   2.266   7.110  0.0587  0.0466 -0.5156
18625SOL    HW157069   3.209   2.287   7.117  0.2281  0.5696  0.4012
18625SOL    HW257070   3.316   2.196   7.174  0.1599 -0.5201 -1.1524
18626SOL     OW57071   8.173   6.593   0.334 -0.0611  0.2197 -0.4333
18626SOL    HW157072   8.180   6.680   0.296 -1.1417  1.1408  1.3309
18626SOL    HW257073   8.245   6.544   0.295  0.2976  1.7530 -1.8106
18627SOL     OW57074   4.429   1.918   8.323 -0.0736 -0.6696  0.0620
18627SOL    HW157075   4.366   1.935   8.253 -1.6924  0.9587  1.7827
18627SOL    HW257076   4.507   1.886   8.278 -0.9859  0.4043 -2.4675
18628SOL     OW57077   4.769   1.594   0.311  0.0997  0.0393 -0.4830
18628SOL    HW157078   4.689   1.629   0.352  1.2010  1.6898  0.3836
18628SOL    HW257079   4.823   1.567   0.385  1.0401  0.5542 -0.9716
18629SOL     OW57080   3.750   3.475   1.174  0.5759  0.0474 -0.4359
18629SOL    HW157081   3.761   3.391   1.218 -1.1130 -0.6053 -1.1650
18629SOL    HW257082   3.727   3.452   1.084  0.8424  1.3048 -0.8449
18630SOL     OW57083   5.346   2.558   8.505 -0.0386 -0.3187  0.2239
18630SOL    HW157084   5.439   2.541   8.494  0.1793  0.8156  0.1908
18630SOL    HW257085   5.330   2.543   8.599 -0.0284 -1.3777  0.0710
18631SOL     OW57086   7.259   8.591   2.539 -0.3281 -0.4645 -0.1508
18631SOL    HW157087   7.260   8.500   2.566  0.3285 -0.8065 -1.2330
18631SOL    HW257088   7.246   8.587   2.444  1.8024  0.4394 -0.5480
18632SOL     OW57089   5.342   1.405   6.526 -0.3746  0.5799 -0.5244
18632SOL    HW157090   5.293   1.487   6.515 -1.1482  0.1432 -0.3810
18632SOL    HW257091   5.345   1.392   6.620  0.8674  1.1010 -0.4795
18633SOL     OW57092   2.438   0.723   3.878 -0.0954  0.0427 -0.4754
18633SOL    HW157093   2.510   0.777   3.911 -0.6972  0.7797 -0.3413
18633SOL    HW257094   2.363   0.782   3.877 -0.5953 -0.5944 -1.0466
18634SOL     OW57095   4.751   0.391   7.392 -0.5086 -0.5123  0.3292
18634SOL    HW157096   4.743   0.427   7.480 -0.5487 -0.7695  0.4319
18634SOL    HW257097   4.804   0.312   7.403 -1.5905 -1.2613  0.3213
18635SOL     OW57098   3.868   8.329   3.254 -0.1524 -0.1232  0.0472
18635SOL    HW157099   3.800   8.299   3.193  0.3118 -0.6784 -0.2004
18635SOL    HW257100   3.945   8.344   3.200 -0.4195  1.7900  0.1127
18636SOL     OW57101   1.508   1.473   1.725  0.5153 -1.0676 -0.1003
18636SOL    HW157102   1.523   1.549   1.782 -2.0203 -0.4367 -0.1465
18636SOL    HW257103   1.551   1.496   1.643 -0.1480  0.3184 -0.0915
18637SOL     OW57104   1.645   5.817   0.327 -0.4174  0.1945 -0.2039
18637SOL    HW157105   1.552   5.833   0.341 -0.4446 -0.8293  0.8572
18637SOL    HW257106   1.683   5.810   0.415  0.2518 -1.6542 -0.5941
18638SOL     OW57107   8.514   7.660   5.579  0.7149 -0.2713 -0.4428
18638SOL    HW157108   8.603   7.664   5.544  0.6764 -0.7226 -0.5926
18638SOL    HW257109   8.514   7.583   5.637  0.2490 -0.6391 -0.9278
18639SOL     OW57110   8.233   3.237   8.339 -0.1706 -0.1222 -0.7940
18639SOL    HW157111   8.162   3.174   8.324 -1.4400  1.2141 -0.6223
18639SOL    HW257112   8.244   3.280   8.254 -2.2282  2.2660  0.0120
18640SOL     OW57113   1.272   7.484   8.104 -0.3121 -0.1928  0.5559
18640SOL    HW157114   1.304   7.426   8.035 -0.2395  0.0052  0.4246
18640SOL    HW257115   1.320   7.566   8.091 -1.0458  0.1827  0.2183
18641SOL     OW57116   5.005   5.237   7.867  0.2093 -0.2960 -0.3936
18641SOL    HW157117   5.035   5.202   7.783 -1.0364 -0.8730 -0.6244
18641SOL    HW257118   4.936   5.299   7.844 -0.5491 -0.8927  0.2201
18642SOL     OW57119   1.190   3.609   2.751 -0.7495 -1.2918  0.1081
18642SOL    HW157120   1.144   3.634   2.831  1.6277  0.0517  1.1682
18642SOL    HW257121   1.241   3.531   2.777  0.2304 -0.6973  0.0199
18643SOL     OW57122   0.862   1.984   8.113 -0.1079  0.2442  0.0051
18643SOL    HW157123   0.885   1.933   8.035 -0.1914 -0.2088  0.2726
18643SOL    HW257124   0.841   1.918   8.179 -0.6206  0.6339  0.2364
18644SOL     OW57125   8.441   0.641   6.292  0.0727 -0.0431  1.0198
18644SOL    HW157126   8.367   0.690   6.256 -0.7106 -0.3916  2.0855
18644SOL    HW257127   8.447   0.562   6.239 -0.5872 -0.2031  1.1791
18645SOL     OW57128   7.522   6.692   0.855  0.0348  0.0916 -0.0697
18645SOL    HW157129   7.535   6.602   0.825 -0.5613  0.2137 -0.7217
18645SOL    HW257130   7.582   6.702   0.929  0.6596 -0.5969 -0.4755
18646SOL     OW57131   5.838   6.524   7.727 -0.1394  0.5109  0.5523
18646SOL    HW157132   5.895   6.458   7.767  0.0521  0.5799  0.4012
18646SOL    HW257133   5.888   6.555   7.651 -0.2513  0.7898  0.5907
18647SOL     OW57134   5.952   6.279   2.814  0.0766 -0.2059 -0.8570
18647SOL    HW157135   5.910   6.343   2.871  0.0580 -1.1464  0.2187
18647SOL    HW257136   5.880   6.236   2.769 -0.1715 -1.6725  0.8321
18648SOL     OW57137   0.690   5.328   1.849 -0.4187 -0.4593 -0.3329
18648SOL    HW157138   0.664   5.390   1.917 -0.2608 -0.4035 -0.3228
18648SOL    HW257139   0.682   5.379   1.768  1.4074  0.1409 -0.1820
18649SOL     OW57140   2.483   4.664   4.463  0.5251  0.2243  0.7943
18649SOL    HW157141   2.486   4.742   4.408  1.3607 -0.9436 -0.8733
18649SOL    HW257142   2.390   4.644   4.472  0.3790  0.5158 -0.0528
18650SOL     OW57143   3.019   2.642   2.230 -0.4444 -0.2068 -0.0674
18650SOL    HW157144   3.019   2.721   2.176 -0.5411 -0.3783 -0.3167
18650SOL    HW257145   3.111   2.626   2.249 -0.4636  0.3963  0.6168
18651SOL     OW57146   7.524   0.669   8.230  0.0854  0.6777 -0.2940
18651SOL    HW157147   7.577   0.681   8.309 -0.4094  1.4601 -0.0759
18651SOL    HW257148   7.580   0.700   8.159  0.4684  0.1276 -0.2493
18652SOL     OW57149   1.763   6.494   4.579 -0.1639  0.0799 -0.3125
18652SOL    HW157150   1.774   6.405   4.613  1.5524  0.5525  0.4740
18652SOL    HW257151   1.810   6.494   4.496 -0.8646  0.0501 -0.7197
18653SOL     OW57152   1.277   7.082   8.441  0.0293 -0.8540 -0.0804
18653SOL    HW157153   1.369   7.103   8.459 -0.2718 -0.8565  1.6476
18653SOL    HW257154   1.271   7.080   8.346  1.4019  0.9727 -0.2505
18654SOL     OW57155   6.780   0.177   2.182  0.3971  0.0163  0.3080
18654SOL    HW157156   6.787   0.203   2.274 -1.4541  0.2207  0.4361
18654SOL    HW257157   6.737   0.092   2.184 -0.0086  0.1934 -0.3736
18655SOL     OW57158   7.475   7.733   2.775 -0.6348  0.0302  0.2287
18655SOL    HW157159   7.548   7.726   2.715 -0.6590  0.5196  0.1317
18655SOL    HW257160   7.428   7.650   2.767 -0.9930  0.3221 -0.8940
18656SOL     OW57161   2.269   2.080   0.408 -0.0593  0.4611 -0.1413
18656SOL    HW157162   2.273   2.090   0.313 -0.9998 -1.1601 -0.3851
18656SOL    HW257163   2.253   2.169   0.440 -1.9987  0.7492 -1.6771
18657SOL     OW57164   2.813   2.564   0.445 -0.0216  0.4457  0.5462
18657SOL    HW157165   2.758   2.498   0.403  1.7484 -0.5279 -0.3161
18657SOL    HW257166   2.855   2.519   0.518  0.2960  0.9380  0.6769
18658SOL     OW57167   2.029   1.942   4.823  0.0077 -0.7559  0.3438
18658SOL    HW157168   1.955   1.921   4.766 -0.3097  0.2554  0.3593
18658SOL    HW257169   1.991   1.955   4.909  0.3038 -0.9576  0.5069
18659SOL     OW57170   1.115   5.562   7.522  0.3718 -0.0566  0.2282
18659SOL    HW157171   1.099   5.567   7.616 -0.6755  1.7605  0.0047
18659SOL    HW257172   1.028   5.553   7.483  0.8350 -1.4402 -0.5687
18660SOL     OW57173   4.783   1.729   2.682  0.0390  0.5275 -0.0443
18660SOL    HW157174   4.875   1.718   2.707 -0.2037 -1.1713  0.2266
18660SOL    HW257175   4.775   1.680   2.600 -0.5750  0.8334 -0.1677
18661SOL     OW57176   6.140   3.162   6.250 -0.7204 -0.2719  0.0976
18661SOL    HW157177   6.223   3.118   6.234 -0.8271 -0.0805 -1.1526
18661SOL    HW257178   6.150   3.202   6.336  1.4467  1.7768 -0.9768
18662SOL     OW57179   2.958   2.560   6.504 -0.2684 -0.2561 -0.5200
18662SOL    HW157180   3.030   2.611   6.468  0.2298 -0.2467  0.4448
18662SOL    HW257181   2.957   2.479   6.452 -0.6733  0.4547 -1.6524
18663SOL     OW57182   6.928   5.648   7.476 -0.1908 -0.1631 -0.4487
18663SOL    HW157183   6.934   5.561   7.516  0.7592 -0.7327 -1.7377
18663SOL    HW257184   7.015   5.686   7.489 -0.8278  0.9450  0.7918
18664SOL     OW57185   8.256   4.597   7.558  0.7452  0.5274  0.0583
18664SOL    HW157186   8.327   4.642   7.512 -0.1151  0.4088 -1.4589
18664SOL    HW257187   8.263   4.506   7.531  0.6891  0.2951  0.7958
18665SOL     OW57188   7.022   4.924   6.638  0.3295  0.4032 -0.8621
18665SOL    HW157189   7.026   4.925   6.542  1.2499  0.5663 -0.8373
18665SOL    HW257190   7.058   4.839   6.663  0.7039  0.6197 -0.6508
18666SOL     OW57191   0.980   0.002   3.578  0.4323 -0.3896  0.1847
18666SOL    HW157192   0.933   0.085   3.587  1.1699  0.2350 -1.3915
18666SOL    HW257193   0.913  -0.065   3.591 -0.3786  0.4577  0.4565
18667SOL     OW57194   0.346   5.544   1.357 -0.5087  0.1399 -0.2287
18667SOL    HW157195   0.268   5.537   1.412 -1.7729  0.2421 -1.9334
18667SOL    HW257196   0.317   5.589   1.279  1.4400  0.7648 -0.6557
18668SOL     OW57197   4.640   4.053   1.986  0.1057 -0.2520 -0.0645
18668SOL    HW157198   4.648   4.103   2.067 -2.8940  0.1711  0.0801
18668SOL    HW257199   4.678   3.968   2.006  4.1304  1.3199  0.0806
18669SOL     OW57200   2.273   0.154   4.139  0.6216  0.3515 -0.5532
18669SOL    HW157201   2.312   0.185   4.057  0.8178 -0.2799 -0.7008
18669SOL    HW257202   2.275   0.230   4.196  1.8977  0.3906 -0.6171
18670SOL     OW57203   5.467   2.870   0.719 -0.2254 -0.1463  0.2815
18670SOL    HW157204   5.525   2.799   0.689 -0.1730 -0.0674  0.1948
18670SOL    HW257205   5.500   2.948   0.674 -1.1886 -0.3290 -0.7941
18671SOL     OW57206   2.608   2.233   7.263  0.3312  0.1142  0.1606
18671SOL    HW157207   2.616   2.142   7.292 -0.2397 -1.1040 -3.1108
18671SOL    HW257208   2.696   2.268   7.269  1.0112 -1.3893 -0.6307
18672SOL     OW57209   0.926   7.478   4.787 -1.0686  0.5456 -0.0772
18672SOL    HW157210   0.887   7.442   4.867  0.5442 -0.3311  0.3585
18672SOL    HW257211   0.979   7.407   4.753  0.4980  1.8150 -0.3925
18673SOL     OW57212   2.471   3.096   1.465 -0.0774 -0.1546 -0.3572
18673SOL    HW157213   2.406   3.045   1.416 -1.8424  0.3414  1.3428
18673SOL    HW257214   2.421   3.136   1.536  1.9909  0.8309  0.6165
18674SOL     OW57215   2.124   0.678   0.209  0.1346  0.4480  0.0150
18674SOL    HW157216   2.076   0.757   0.185  0.2296  0.9517  1.4191
18674SOL    HW257217   2.113   0.620   0.134 -4.7827 -0.5098  1.1558
18675SOL     OW57218   7.291   4.943   4.440  0.0251  0.7391 -0.3075
18675SOL    HW157219   7.351   4.892   4.494 -2.1284 -0.3970  1.1613
18675SOL    HW257220   7.307   5.034   4.465  1.5714  0.5315 -0.4724
18676SOL     OW57221   6.722   3.474   5.147 -0.9629 -0.4358 -0.2445
18676SOL    HW157222   6.649   3.425   5.109  0.1352 -4.1099  1.9094
18676SOL    HW257223   6.686   3.511   5.228 -0.7660 -1.3048  0.2521
18677SOL     OW57224   5.297   8.460   3.572  0.2142 -0.1507  0.6615
18677SOL    HW157225   5.290   8.505   3.488  1.7603  0.7444  0.9759
18677SOL    HW257226   5.219   8.489   3.621  0.8672  1.7842  0.6416
18678SOL     OW57227   2.695   4.960   2.871  0.0047 -0.4130  0.0944
18678SOL    HW157228   2.710   5.045   2.830 -1.8410 -0.1694 -0.1471
18678SOL    HW257229   2.749   4.961   2.950  0.3969  0.7604 -0.1719
18679SOL     OW57230   5.260   7.841   1.663 -0.4698 -0.0308 -0.2838
18679SOL    HW157231   5.346   7.882   1.651 -1.5202  2.3431 -0.3976
18679SOL    HW257232   5.223   7.836   1.575 -0.4012 -1.2455 -0.2617
18680SOL     OW57233   2.188   5.484   0.914  0.5737 -0.1551  0.1318
18680SOL    HW157234   2.254   5.442   0.970 -0.0961  0.2713  1.2859
18680SOL    HW257235   2.210   5.577   0.918  1.7990 -0.2989 -2.0742
18681SOL     OW57236   7.526   0.550   2.193  0.1243  0.3087  0.6220
18681SOL    HW157237   7.467   0.480   2.165 -0.5362  1.7163 -1.8180
18681SOL    HW257238   7.584   0.509   2.257  0.7289 -2.8924 -1.7346
18682SOL     OW57239   2.778   5.481   2.001 -0.5612 -0.0224 -0.0098
18682SOL    HW157240   2.747   5.406   2.053 -0.4380  0.7904  1.2836
18682SOL    HW257241   2.873   5.482   2.014 -0.6097  0.6087  0.3446
18683SOL     OW57242   0.118   7.249   6.532 -0.1641  0.2345 -0.5119
18683SOL    HW157243   0.107   7.239   6.437 -2.1401 -0.2209 -0.2633
18683SOL    HW257244   0.146   7.163   6.562 -0.4020  0.1328 -0.5776
18684SOL     OW57245   6.849   6.151   1.111 -0.1728 -0.1300  0.2438
18684SOL    HW157246   6.801   6.184   1.187 -0.2688  1.2667 -0.3884
18684SOL    HW257247   6.788   6.159   1.038  1.1522  2.3738 -0.7164
18685SOL     OW57248   0.244   3.445   3.181 -0.5614  0.2473 -0.3221
18685SOL    HW157249   0.338   3.428   3.192 -0.2023  1.4629 -1.2294
18685SOL    HW257250   0.240   3.527   3.132 -2.1108  0.2470 -0.2574
18686SOL     OW57251   1.409   1.295   1.917 -0.0443 -0.0218  0.4724
18686SOL    HW157252   1.443   1.350   1.846 -2.2620 -0.5083 -1.0736
18686SOL    HW257253   1.365   1.223   1.872 -1.4758 -0.3675  2.3327
18687SOL     OW57254   5.827   1.328   3.897  0.3328  0.2689  0.5194
18687SOL    HW157255   5.830   1.417   3.861  1.4748 -0.1485 -0.5069
18687SOL    HW257256   5.860   1.338   3.987  1.1806  0.7935  0.1693
18688SOL     OW57257   1.416   3.668   6.072  0.3437  0.1639  0.1067
18688SOL    HW157258   1.395   3.695   5.982  3.0753  2.1292 -0.0597
18688SOL    HW257259   1.392   3.743   6.126 -0.2914 -0.6019  0.9136
18689SOL     OW57260   4.535   2.083   0.145  0.1037 -0.1993 -0.1063
18689SOL    HW157261   4.507   2.122   0.062 -0.2922  1.5816  0.8230
18689SOL    HW257262   4.493   2.137   0.212 -1.0162 -2.6220  1.2904
18690SOL     OW57263   8.532   1.625   3.853 -0.0829 -0.1465 -0.0531
18690SOL    HW157264   8.461   1.615   3.916  0.0982  1.5048  0.4725
18690SOL    HW257265   8.501   1.580   3.774 -0.2910 -2.2917  1.1798
18691SOL     OW57266   2.608   2.868   8.112  0.5076  0.3674  0.1203
18691SOL    HW157267   2.533   2.924   8.135  0.7137 -0.0681  2.0031
18691SOL    HW257268   2.683   2.911   8.153  0.6641 -1.2740  1.6598
18692SOL     OW57269   0.976   1.603   6.386 -0.2277  0.0308 -0.0596
18692SOL    HW157270   1.007   1.694   6.387  1.0321 -0.3776  0.7315
18692SOL    HW257271   0.911   1.601   6.316  0.3708  1.3336 -0.7015
18693SOL     OW57272   7.935   1.559   6.393 -0.2799  0.4908  0.1596
18693SOL    HW157273   7.859   1.612   6.367 -1.3086 -0.5416  0.9578
18693SOL    HW257274   7.955   1.589   6.482 -0.5373 -0.0795  0.4145
18694SOL     OW57275   6.258   7.073   6.178  0.5631  0.1453  0.2480
18694SOL    HW157276   6.241   7.022   6.099  3.0289  2.1525 -1.7643
18694SOL    HW257277   6.193   7.144   6.175 -0.7614 -0.9630  1.3005
18695SOL     OW57278   7.655   0.258   5.637  0.1893  0.1334  0.1803
18695SOL    HW157279   7.572   0.300   5.616  0.1711  1.3656  2.4389
18695SOL    HW257280   7.721   0.318   5.604  0.1732  0.4615  0.7450
18696SOL     OW57281   3.412   5.730   6.794  0.4612 -0.4240  0.3218
18696SOL    HW157282   3.500   5.707   6.764  0.4961 -1.9640  1.5085
18696SOL    HW257283   3.426   5.804   6.852  0.9859 -0.6870  0.5396
18697SOL     OW57284   4.727   2.499   1.356 -0.5075 -0.4845 -0.0064
18697SOL    HW157285   4.755   2.436   1.290 -2.1342 -0.7151 -0.5231
18697SOL    HW257286   4.632   2.502   1.347 -0.4445  2.6626 -0.5369
18698SOL     OW57287   4.291   2.386   3.119 -0.1293 -0.1802 -0.2191
18698SOL    HW157288   4.324   2.303   3.084  0.0784 -0.0113 -0.4267
18698SOL    HW257289   4.258   2.364   3.206  0.8228 -0.2865  0.1213
18699SOL     OW57290   7.374   3.163   1.436 -0.1402 -0.3031 -0.4182
18699SOL    HW157291   7.378   3.069   1.449  1.0280 -0.3232 -0.8005
18699SOL    HW257292   7.379   3.175   1.342  1.8953  0.1914 -0.2931
18700SOL     OW57293   5.083   5.695   5.292 -0.1071  0.1499  0.3841
18700SOL    HW157294   5.095   5.640   5.214 -0.3995 -0.1696  0.5645
18700SOL    HW257295   5.002   5.664   5.331  0.5530 -0.3662  1.3777
18701SOL     OW57296   3.713   4.837   6.200 -0.1446  1.0736  0.5709
18701SOL    HW157297   3.667   4.759   6.232  0.6950  0.7375  0.9973
18701SOL    HW257298   3.643   4.895   6.168 -0.9095  0.8310  1.7316
18702SOL     OW57299   6.431   6.518   0.431  0.2782  0.4033  0.0747
18702SOL    HW157300   6.355   6.468   0.459 -0.8478  1.9940 -0.0153
18702SOL    HW257301   6.396   6.604   0.407  1.7571  0.4244 -2.2885
18703SOL     OW57302   4.227   3.582   1.869  0.0716  0.1066  0.0832
18703SOL    HW157303   4.239   3.489   1.850 -0.7688 -0.1693  0.8524
18703SOL    HW257304   4.315   3.619   1.862  0.2014 -0.4621 -1.6270
18704SOL     OW57305   1.645   3.441   1.655 -0.1957  0.8198  0.0792
18704SOL    HW157306   1.713   3.505   1.630 -0.0265  0.3363 -0.7463
18704SOL    HW257307   1.615   3.470   1.741 -0.2560  2.1221 -0.3602
18705SOL     OW57308   2.286   6.355   0.646  0.0426  0.1557 -0.6916
18705SOL    HW157309   2.214   6.383   0.703  0.9054  1.1015 -0.0179
18705SOL    HW257310   2.289   6.260   0.655  0.7367  0.3302  1.6428
18706SOL     OW57311   2.020   6.841   3.407 -0.4515 -0.0951 -0.3035
18706SOL    HW157312   1.940   6.789   3.399 -0.3675 -0.3805  0.6525
18706SOL    HW257313   2.011   6.888   3.490 -0.0721  0.6436 -0.6719
18707SOL     OW57314   1.372   7.388   2.734 -0.7838 -0.5456  0.1362
18707SOL    HW157315   1.301   7.328   2.758 -1.6898  0.2382 -0.5062
18707SOL    HW257316   1.450   7.348   2.772 -1.7640 -0.6485  2.2133
18708SOL     OW57317   4.837   5.734   2.787  0.3372  0.4200  0.1673
18708SOL    HW157318   4.880   5.752   2.871 -0.1572 -0.8639  0.7261
18708SOL    HW257319   4.791   5.815   2.766  1.2571  1.0860  0.6370
18709SOL     OW57320   8.586   3.985   2.277  0.1396  0.3390  0.2530
18709SOL    HW157321   8.661   3.929   2.293 -0.1571 -0.4439 -0.9618
18709SOL    HW257322   8.581   4.042   2.354  2.1894  0.6718  0.1950
18710SOL     OW57323   3.328   2.215   5.340 -0.1193 -0.1555  0.2466
18710SOL    HW157324   3.238   2.199   5.311 -1.0675  0.0998  2.8064
18710SOL    HW257325   3.381   2.195   5.263 -2.0819 -3.5554 -0.4813
18711SOL     OW57326   6.101   0.889   1.697  0.4082 -0.3186 -0.0896
18711SOL    HW157327   6.081   0.915   1.607 -0.4744  0.2992  0.2706
18711SOL    HW257328   6.144   0.966   1.734  1.6175 -0.8918 -0.2295
18712SOL     OW57329   2.333   4.970   6.305 -0.3885 -0.0036  0.3136
18712SOL    HW157330   2.345   5.046   6.248  1.9742  0.7857  1.7027
18712SOL    HW257331   2.240   4.971   6.328 -0.8993  1.0319 -1.5578
18713SOL     OW57332   1.582   0.299   7.847  0.1046  0.6180  0.1668
18713SOL    HW157333   1.655   0.337   7.897  0.9077  0.0188 -0.5152
18713SOL    HW257334   1.612   0.300   7.757 -0.7982  0.4725 -0.1457
18714SOL     OW57335   0.731   1.121   6.079  0.5356 -0.1400 -0.1806
18714SOL    HW157336   0.665   1.190   6.087  2.1463  1.2478  3.6852
18714SOL    HW257337   0.685   1.041   6.103 -0.1266  0.6025  1.1734
18715SOL     OW57338   3.578   6.538   1.589 -0.0887  0.2922  0.2119
18715SOL    HW157339   3.490   6.536   1.553 -0.2724  1.6022  0.5104
18715SOL    HW257340   3.567   6.522   1.683  0.2713 -1.9963 -0.0954
18716SOL     OW57341   8.216   7.567   1.658  0.5183  0.1373  0.1723
18716SOL    HW157342   8.185   7.483   1.625 -0.5474  1.2077 -1.7805
18716SOL    HW257343   8.173   7.577   1.743 -0.6090 -0.6292 -0.2774
18717SOL     OW57344   7.839   0.176   7.937 -0.3220 -0.1818  0.0845
18717SOL    HW157345   7.751   0.178   7.899 -0.1992  0.9933 -0.1777
18717SOL    HW257346   7.829   0.126   8.018 -1.6465  1.4833  1.0125
18718SOL     OW57347   1.426   4.518   2.453  0.3625  0.8193 -0.2364
18718SOL    HW157348   1.498   4.560   2.500 -0.2521  0.1512  1.3674
18718SOL    HW257349   1.448   4.424   2.455  0.0264  0.7216 -0.7894
18719SOL     OW57350   5.076   3.584   3.820 -0.2374 -0.8034  0.7758
18719SOL    HW157351   5.156   3.636   3.826  0.6444 -1.8336 -1.0880
18719SOL    HW257352   5.105   3.494   3.832 -0.6822 -1.4134 -1.9667
18720SOL     OW57353   5.489   5.251   6.999  0.4162  0.3804  0.0405
18720SOL    HW157354   5.433   5.223   6.926  0.3946 -0.6255  0.4320
18720SOL    HW257355   5.438   5.230   7.077  1.5930 -1.1677  0.4285
18721SOL     OW57356   3.534   5.346   4.749 -0.1967 -0.6083  0.2766
18721SOL    HW157357   3.511   5.434   4.779 -0.4124 -0.6827  0.3333
18721SOL    HW257358   3.603   5.359   4.685 -1.0348 -0.3023 -0.5921
18722SOL     OW57359   7.706   2.128   3.258  0.3730 -0.3075  0.0303
18722SOL    HW157360   7.770   2.142   3.328  0.1267  0.3478  0.1292
18722SOL    HW257361   7.624   2.108   3.305  0.0648  0.7227 -0.0426
18723SOL     OW57362   2.733   8.313   2.999 -0.3279  0.2164 -0.0455
18723SOL    HW157363   2.686   8.367   2.935 -2.3655 -1.2887  0.0889
18723SOL    HW257364   2.679   8.315   3.077  0.3939 -0.6974  0.5034
18724SOL     OW57365   0.525   7.365   2.399  0.4343 -0.1788 -0.0494
18724SOL    HW157366   0.536   7.450   2.357  1.3067  0.8728  2.1108
18724SOL    HW257367   0.560   7.377   2.487  0.1491 -2.6644  0.5005
18725SOL     OW57368   0.125   5.209   4.072  0.1759  0.0543 -0.4697
18725SOL    HW157369   0.044   5.260   4.076 -0.2953 -0.6345 -0.8803
18725SOL    HW257370   0.108   5.133   4.128  0.2938 -0.4138 -1.0557
18726SOL     OW57371   5.024   1.434   3.112 -0.0590 -0.3942 -0.3408
18726SOL    HW157372   5.096   1.490   3.082  0.8184 -1.3749 -0.1172
18726SOL    HW257373   5.061   1.383   3.184 -1.5135  0.3657  0.9895
18727SOL     OW57374   2.686   4.544   8.091 -0.2715 -0.1645 -0.3149
18727SOL    HW157375   2.673   4.466   8.037 -0.1249 -0.0481 -0.5232
18727SOL    HW257376   2.752   4.518   8.155 -0.5371 -0.3417 -0.1142
18728SOL     OW57377   7.028   8.357   2.401  0.2176  0.3231 -0.3247
18728SOL    HW157378   7.036   8.262   2.391  0.6184  0.0878  1.6946
18728SOL    HW257379   6.934   8.373   2.402  0.1457  0.0733 -1.4309
18729SOL     OW57380   5.821   1.026   1.886 -0.7409  0.0801 -0.7043
18729SOL    HW157381   5.831   0.967   1.960 -0.9308 -0.1222 -0.8372
18729SOL    HW257382   5.904   1.073   1.881 -2.0856  3.0938  2.1738
18730SOL     OW57383   5.224   1.273   5.462 -0.0587 -0.0091 -0.2154
18730SOL    HW157384   5.298   1.217   5.442 -0.3512  0.3340 -2.5617
18730SOL    HW257385   5.247   1.358   5.425 -0.5899  0.8151  1.2590
18731SOL     OW57386   0.753   1.351   2.476 -0.5416  0.2311  0.1792
18731SOL    HW157387   0.773   1.312   2.561 -1.1763 -1.0723 -0.2545
18731SOL    HW257388   0.781   1.443   2.485  0.6407 -0.2101  1.3325
18732SOL     OW57389   6.164   5.784   1.371 -0.0923 -0.2153 -0.4404
18732SOL    HW157390   6.136   5.785   1.463 -1.7723 -0.7591 -0.9244
18732SOL    HW257391   6.172   5.691   1.349 -1.5371 -0.1573 -1.3498
18733SOL     OW57392   3.485   0.432   4.824 -0.6684 -0.3793  0.0056
18733SOL    HW157393   3.415   0.424   4.888 -1.0811 -1.1534 -0.5316
18733SOL    HW257394   3.506   0.526   4.823 -0.1996 -0.4299  1.7227
18734SOL     OW57395   5.545   4.228   8.428 -0.3428  0.0272 -0.1492
18734SOL    HW157396   5.626   4.202   8.471 -0.5213 -0.5347 -0.1423
18734SOL    HW257397   5.573   4.278   8.351 -0.0292  1.5883  0.9404
18735SOL     OW57398   7.201   2.265   0.595 -0.4144  0.1632  0.3434
18735SOL    HW157399   7.211   2.243   0.502  1.4287  0.6647  0.3794
18735SOL    HW257400   7.287   2.299   0.620 -1.1371  0.8085  2.0355
18736SOL     OW57401   0.345   7.414   2.114  0.1011  0.0440 -0.2232
18736SOL    HW157402   0.432   7.442   2.144 -0.1409 -1.6128  2.3555
18736SOL    HW257403   0.284   7.468   2.165 -0.3293 -1.2663  0.7117
18737SOL     OW57404   8.573   2.787   6.997 -0.1132  0.5859  0.2121
18737SOL    HW157405   8.662   2.818   7.014 -0.4340  1.1855  0.8236
18737SOL    HW257406   8.521   2.821   7.070 -1.2454  1.9921 -1.1896
18738SOL     OW57407   5.144   2.966   8.275 -0.1168 -0.3300 -0.0179
18738SOL    HW157408   5.169   2.915   8.352 -0.8983  0.7293  0.9786
18738SOL    HW257409   5.068   2.921   8.240 -0.1014 -0.4966  0.1623
18739SOL     OW57410   3.327   7.795   1.577 -0.0652  0.0491  0.4570
18739SOL    HW157411   3.246   7.758   1.612 -1.3901  1.9289 -0.4496
18739SOL    HW257412   3.325   7.772   1.484  0.3210  0.3163  0.3807
18740SOL     OW57413   8.060   8.432   3.395  0.3288  0.3446 -0.0839
18740SOL    HW157414   8.025   8.349   3.363  2.2995  0.2947 -2.4126
18740SOL    HW257415   8.003   8.498   3.357 -0.6441  0.1385  0.9563
18741SOL     OW57416   1.265   7.245   3.799 -0.6714 -0.7254 -0.3073
18741SOL    HW157417   1.286   7.160   3.759 -0.5922 -0.7515 -0.2116
18741SOL    HW257418   1.229   7.222   3.885  1.9518 -0.5934  0.9275
18742SOL     OW57419   0.937   6.142   1.034  0.3885 -0.6200 -0.1615
18742SOL    HW157420   0.989   6.187   0.967 -0.2018  0.1832 -0.0914
18742SOL    HW257421   0.849   6.177   1.023  0.5201  0.4585  1.8314
18743SOL     OW57422   6.700   2.910   2.499  0.6446 -0.6125  0.3173
18743SOL    HW157423   6.790   2.941   2.491  0.6856 -0.7527  0.2503
18743SOL    HW257424   6.664   2.963   2.571  0.0624  1.1154 -1.1851
18744SOL     OW57425   1.475   7.784   4.703  0.3268  0.0928  0.3222
18744SOL    HW157426   1.531   7.736   4.764  1.3053  1.2623  0.3766
18744SOL    HW257427   1.519   7.868   4.691 -0.7923  0.5718 -0.5996
18745SOL     OW57428   5.919   8.384   5.032  0.1121  0.1929 -0.1148
18745SOL    HW157429   5.874   8.403   4.949  1.6301 -0.0763 -1.0267
18745SOL    HW257430   5.939   8.291   5.028 -0.3033  0.0497  0.8320
18746SOL     OW57431   5.658   0.997   7.848  0.9645  0.1075 -0.1261
18746SOL    HW157432   5.682   1.062   7.914 -0.9395 -0.4550  1.1882
18746SOL    HW257433   5.563   0.991   7.853  0.6946  0.2666 -3.1931
18747SOL     OW57434   4.144   3.299   8.407  0.0296  0.3901 -0.0344
18747SOL    HW157435   4.206   3.315   8.336  0.0201 -0.4800 -0.2608
18747SOL    HW257436   4.090   3.378   8.411  0.7652  0.9088 -0.2299
18748SOL     OW57437   3.429   6.673   4.879  0.3438  0.1481 -0.4014
18748SOL    HW157438   3.513   6.662   4.924 -0.1862  1.2396  0.9553
18748SOL    HW257439   3.421   6.767   4.868 -1.8473  0.3519  1.9380
18749SOL     OW57440   1.668   2.016   1.522 -0.4187  0.0518 -0.0182
18749SOL    HW157441   1.678   2.015   1.617 -2.6121  0.4474  0.2834
18749SOL    HW257442   1.649   2.108   1.501 -0.6124 -0.1466 -0.7476
18750SOL     OW57443   5.014   6.083   6.342  0.0552  0.4109  0.3981
18750SOL    HW157444   5.051   6.166   6.313  0.5913  0.3009  0.7483
18750SOL    HW257445   5.019   6.026   6.265 -0.1501  0.6508  0.2081
18751SOL     OW57446   4.283   3.432   4.999  0.0511  0.5723  0.0598
18751SOL    HW157447   4.247   3.518   4.976 -0.5470  0.2758 -0.1408
18751SOL    HW257448   4.281   3.430   5.095  1.2177  1.2531  0.1181
18752SOL     OW57449   5.817   0.853   8.037  0.0496 -0.2865 -0.3429
18752SOL    HW157450   5.746   0.886   7.983  0.4587 -0.7008 -1.1646
18752SOL    HW257451   5.855   0.782   7.985  0.5887 -0.5588  0.4039
18753SOL     OW57452   4.632   6.529   5.362 -0.0014  0.3831  0.0648
18753SOL    HW157453   4.647   6.505   5.453  0.6326 -2.2948 -0.6472
18753SOL    HW257454   4.545   6.493   5.342 -0.7904  2.2508 -0.0269
18754SOL     OW57455   7.001   6.362   1.630 -0.3561  0.0438 -0.2912
18754SOL    HW157456   7.037   6.299   1.568 -0.4898 -0.8985  0.5706
18754SOL    HW257457   6.989   6.313   1.711 -0.5964  1.1407  0.3669
18755SOL     OW57458   2.831   7.051   7.978  1.1757  0.4086 -0.4340
18755SOL    HW157459   2.897   7.105   8.023  0.5533  1.0715 -0.2993
18755SOL    HW257460   2.786   7.112   7.920  1.1883 -0.2026 -1.0982
18756SOL     OW57461   6.636   1.054   2.281 -0.0974 -0.3942 -0.2919
18756SOL    HW157462   6.607   1.068   2.371  1.6592  1.9584  0.0015
18756SOL    HW257463   6.676   0.967   2.282  0.3509 -0.1940  1.3494
18757SOL     OW57464   5.210   3.110   4.079 -0.0988  0.3124 -0.4181
18757SOL    HW157465   5.151   3.185   4.084  0.5220  0.8068 -0.3509
18757SOL    HW257466   5.211   3.074   4.168  0.9295  1.2747 -0.0237
18758SOL     OW57467   8.327   2.143   5.420 -0.0833  0.4859  0.4123
18758SOL    HW157468   8.353   2.087   5.493  0.7587  0.2048 -0.0909
18758SOL    HW257469   8.231   2.137   5.418 -0.1038  0.3610  1.3716
18759SOL     OW57470   0.447   2.983   8.125  0.2598 -0.2096  0.2078
18759SOL    HW157471   0.530   3.020   8.095 -0.3654 -0.8465 -2.6226
18759SOL    HW257472   0.468   2.893   8.148  0.5471 -0.0433  0.6090
18760SOL     OW57473   3.552   6.778   1.006 -0.0844 -0.0803  0.4664
18760SOL    HW157474   3.472   6.809   1.047  0.9602  1.5786  1.3527
18760SOL    HW257475   3.552   6.818   0.919 -0.3270 -0.2752  0.3757
18761SOL     OW57476   7.784   6.907   6.985  0.7615  0.4084  0.0533
18761SOL    HW157477   7.752   6.817   6.971  1.0719  0.3799 -0.4949
18761SOL    HW257478   7.813   6.908   7.076  1.7777 -0.3720 -0.2429
18762SOL     OW57479   1.691   1.969   6.446  0.1345  0.2495  0.0673
18762SOL    HW157480   1.748   1.970   6.523  0.7456  2.0813 -0.3596
18762SOL    HW257481   1.645   2.053   6.449 -0.2122  0.1319 -1.2855
18763SOL     OW57482   8.213   6.499   6.132  0.2019  0.1740  0.3158
18763SOL    HW157483   8.161   6.577   6.150  3.2204  2.4828 -0.3135
18763SOL    HW257484   8.251   6.476   6.216 -0.2767 -0.3651  0.3951
18764SOL     OW57485   1.598   5.556   1.803 -0.1507 -0.3372  0.2335
18764SOL    HW157486   1.505   5.578   1.806  0.2489  1.4973  0.3947
18764SOL    HW257487   1.635   5.618   1.739  0.9668 -1.0390  0.1695
18765SOL     OW57488   0.888   0.765   8.546 -0.3442 -0.1705 -0.6991
18765SOL    HW157489   0.835   0.700   8.592 -1.1963  1.2814  0.4372
18765SOL    HW257490   0.948   0.798   8.612  1.0255 -0.7331 -1.6092
18766SOL     OW57491   2.730   2.452   1.028  0.3880  0.1150 -0.2146
18766SOL    HW157492   2.697   2.411   0.948 -0.7568 -1.1700  0.8736
18766SOL    HW257493   2.822   2.425   1.033  0.7940  1.1382 -1.6516
18767SOL     OW57494   4.195   1.127   1.331  0.3600  0.2337 -0.1411
18767SOL    HW157495   4.125   1.122   1.397  0.6729  0.4163  0.2104
18767SOL    HW257496   4.216   1.035   1.311  0.2764  0.1764  0.0310
18768SOL     OW57497   4.798   0.870   7.513  0.0553  1.0531 -0.1786
18768SOL    HW157498   4.880   0.893   7.469  1.2817 -0.5773  1.0995
18768SOL    HW257499   4.734   0.863   7.442  1.3431  1.0495 -1.3926
18769SOL     OW57500   8.257   1.836   7.447 -0.3769  0.4534 -0.3231
18769SOL    HW157501   8.348   1.861   7.466 -0.7921  0.4330  1.9265
18769SOL    HW257502   8.204   1.909   7.480 -1.2957 -0.8005  1.1292
18770SOL     OW57503   5.844   2.423   1.095 -0.3146  0.3026  0.3298
18770SOL    HW157504   5.813   2.492   1.154  1.1757  0.4071  1.0443
18770SOL    HW257505   5.859   2.348   1.152  1.2255  0.4256  0.1374
18771SOL     OW57506   1.427   4.477   1.766 -0.2554 -0.1534 -0.0248
18771SOL    HW157507   1.444   4.489   1.673 -0.5143 -0.3234 -0.0956
18771SOL    HW257508   1.513   4.482   1.807  0.3863 -3.5915 -0.6255
18772SOL     OW57509   0.192   5.944   2.734 -0.6417  0.0389  0.0066
18772SOL    HW157510   0.177   5.960   2.827 -0.0876  1.3804 -0.1126
18772SOL    HW257511   0.140   6.010   2.689 -0.4946 -0.2597 -0.6283
18773SOL     OW57512   2.916   2.911   6.353 -0.5156  0.2138  0.1089
18773SOL    HW157513   2.968   2.980   6.395 -1.0714  0.8594 -0.2379
18773SOL    HW257514   2.920   2.932   6.259 -2.1876  0.8565  0.1533
18774SOL     OW57515   3.440   3.025   2.432 -0.4269 -0.2231  0.9462
18774SOL    HW157516   3.375   2.970   2.388 -0.4220 -1.3126  2.2436
18774SOL    HW257517   3.488   3.066   2.360 -1.9900 -0.0334 -0.0483
18775SOL     OW57518   7.763   6.029   5.742  0.3743  0.3083 -0.2369
18775SOL    HW157519   7.682   6.075   5.763  1.6272  2.9780 -0.7412
18775SOL    HW257520   7.739   5.969   5.671 -1.6464 -0.9841  1.4332
18776SOL     OW57521   1.117   5.483   0.571  0.1350  0.2777  1.1907
18776SOL    HW157522   1.148   5.531   0.648  1.1609  3.1548 -0.8247
18776SOL    HW257523   1.187   5.422   0.550  1.5343  2.0234  0.5539
18777SOL     OW57524   0.312   8.546   2.157 -0.1758  0.0998 -0.6517
18777SOL    HW157525   0.341   8.542   2.066 -0.0931  0.1372 -0.6268
18777SOL    HW257526   0.218   8.562   2.152 -0.3963 -1.1304 -0.7527
18778SOL     OW57527   6.998   6.639   7.222  0.0385  0.0281 -0.0786
18778SOL    HW157528   6.936   6.592   7.165  0.3384 -1.5307  0.8364
18778SOL    HW257529   7.081   6.593   7.210  0.8443  1.5457 -0.6046
18779SOL     OW57530   2.737   1.400   0.973  0.1596  0.3368  0.1160
18779SOL    HW157531   2.676   1.341   0.929 -1.4145  1.8238  0.2012
18779SOL    HW257532   2.756   1.467   0.908 -0.0394  1.0752  0.8114
18780SOL     OW57533   8.575   0.150   6.508 -0.4400  0.2412  0.2670
18780SOL    HW157534   8.527   0.233   6.515 -0.7872  0.1246 -0.6555
18780SOL    HW257535   8.506   0.083   6.506 -0.1795 -0.0356  0.4313
18781SOL     OW57536   2.699   0.288   3.315 -0.1453  0.1627  0.5252
18781SOL    HW157537   2.680   0.236   3.237  0.4194  1.8718 -0.8309
18781SOL    HW257538   2.794   0.281   3.326 -0.1680  0.2665  0.8036
18782SOL     OW57539   7.436   0.926   0.027  0.1043  0.2983 -0.9939
18782SOL    HW157540   7.348   0.952   0.053  0.7213  0.8116  0.7471
18782SOL    HW257541   7.432   0.830   0.021 -0.5611  0.3171 -0.8842
18783SOL     OW57542   4.005   2.084   4.448  0.2606  0.3136  0.4179
18783SOL    HW157543   3.918   2.056   4.476 -0.1558  1.7922  0.6665
18783SOL    HW257544   4.044   2.006   4.408 -0.8870 -0.5661  0.9763
18784SOL     OW57545   1.736   2.630   8.105 -0.1336  0.6613  0.8321
18784SOL    HW157546   1.678   2.558   8.081 -0.8960  0.9703  1.6884
18784SOL    HW257547   1.677   2.705   8.116  0.6324  1.3997  0.0614
18785SOL     OW57548   0.112   2.122   7.449 -0.1053 -0.2140 -0.1741
18785SOL    HW157549   0.120   2.186   7.520 -1.4532  2.1303 -1.9556
18785SOL    HW257550   0.193   2.072   7.453 -0.3661 -0.6335  3.3286
18786SOL     OW57551   4.917   7.550   8.541  0.0922  0.2168 -0.2297
18786SOL    HW157552   4.888   7.549   8.632 -0.7124  2.5332 -0.3859
18786SOL    HW257553   5.007   7.582   8.545  0.3639 -0.5522 -0.1879
18787SOL     OW57554   3.377   4.907   0.533 -0.1644 -0.2013 -0.3523
18787SOL    HW157555   3.393   4.830   0.478  2.6193  1.9876 -2.9590
18787SOL    HW257556   3.455   4.912   0.590  0.0406  1.0109 -0.7088
18788SOL     OW57557   8.285   3.729   1.788  0.3310  0.5005 -0.6706
18788SOL    HW157558   8.244   3.815   1.790 -0.1883  0.2434  0.5559
18788SOL    HW257559   8.310   3.716   1.696 -0.4638  1.5369 -1.0454
18789SOL     OW57560   0.438   8.395   1.704  0.1849 -0.3915  0.4262
18789SOL    HW157561   0.390   8.428   1.629  0.2698  0.3265  0.6759
18789SOL    HW257562   0.510   8.345   1.667 -1.1214 -2.0874  0.0424
18790SOL     OW57563   1.249   5.344   5.081 -0.1471 -0.0373 -0.0785
18790SOL    HW157564   1.315   5.276   5.067  0.9536  1.1901 -1.1982
18790SOL    HW257565   1.269   5.410   5.014  0.1061  2.3251  2.1549
18791SOL     OW57566   3.577   8.211   5.541 -0.2087  0.2824 -0.2349
18791SOL    HW157567   3.569   8.247   5.630  0.2043  0.6669 -0.3554
18791SOL    HW257568   3.643   8.142   5.549  0.3956  0.8390 -0.4049
18792SOL     OW57569   4.145   2.905   7.874 -0.1044 -0.3469 -0.3522
18792SOL    HW157570   4.055   2.935   7.863  0.0674  0.1538 -0.4071
18792SOL    HW257571   4.182   2.910   7.786 -0.0639 -0.6941 -0.3565
18793SOL     OW57572   7.379   1.065   2.360  0.2600  0.4010  0.1652
18793SOL    HW157573   7.388   0.970   2.358 -0.9485  0.2847 -0.3206
18793SOL    HW257574   7.428   1.095   2.284 -1.9589 -0.1053 -1.5605
18794SOL     OW57575   0.895   4.020   5.602  0.5679  0.4437 -0.3726
18794SOL    HW157576   0.930   3.949   5.656  0.8959 -0.4889 -1.7511
18794SOL    HW257577   0.803   4.027   5.628  1.1091  1.2170  1.5052
18795SOL     OW57578   4.626   1.128   2.592  0.4101  0.3637 -0.8866
18795SOL    HW157579   4.608   1.196   2.528 -0.9028 -0.6193 -1.6211
18795SOL    HW257580   4.539   1.097   2.619  0.9308 -1.7894 -1.4599
18796SOL     OW57581   7.102   3.958   2.153 -0.2972  0.5056  0.2335
18796SOL    HW157582   7.148   3.882   2.117 -1.5303  0.5001 -1.4338
18796SOL    HW257583   7.160   4.032   2.134  0.5699  0.1064  1.2124
18797SOL     OW57584   5.899   3.168   5.560 -0.0444 -0.4778 -0.0056
18797SOL    HW157585   5.986   3.137   5.585  0.4062 -1.0425 -2.0355
18797SOL    HW257586   5.897   3.259   5.588  1.9225  0.0847 -1.4154
18798SOL     OW57587   8.182   5.450   3.662 -0.1741  0.0084  0.1588
18798SOL    HW157588   8.172   5.472   3.754  0.1379  1.8375 -0.2003
18798SOL    HW257589   8.269   5.484   3.639 -0.7169  0.6098 -1.0729
18799SOL     OW57590   3.925   6.994   0.509  0.9862  0.5579  0.3428
18799SOL    HW157591   3.928   6.938   0.431  1.5654  1.7379 -0.5154
18799SOL    HW257592   3.919   7.083   0.474  0.4396  1.0670  1.6727
18800SOL     OW57593   1.180   2.471   6.564 -0.2733 -0.2879  0.8795
18800SOL    HW157594   1.190   2.437   6.654  1.3028 -0.8057  0.5324
18800SOL    HW257595   1.143   2.398   6.515 -0.7371 -0.1430  1.0086
18801SOL     OW57596   4.060   3.476   5.779  0.3623 -0.1776 -0.5223
18801SOL    HW157597   4.128   3.537   5.808  1.9865 -2.1846  0.1000
18801SOL    HW257598   4.046   3.418   5.854 -0.6254 -1.0098 -1.3187
18802SOL     OW57599   5.106   0.716   1.405 -1.0242 -0.3826 -0.0808
18802SOL    HW157600   5.122   0.622   1.400 -2.7277 -0.6475 -1.8815
18802SOL    HW257601   5.010   0.723   1.407 -0.9373  1.3362 -0.8258
18803SOL     OW57602   4.496   4.370   2.441 -0.5004  0.2043 -0.2415
18803SOL    HW157603   4.589   4.388   2.447  0.2292 -2.8451 -0.7338
18803SOL    HW257604   4.457   4.422   2.511  1.7455  0.5083  0.8618
18804SOL     OW57605   8.019   2.734   7.635  0.3898 -0.5761  0.0505
18804SOL    HW157606   8.019   2.752   7.729 -1.0398 -0.2851  0.0276
18804SOL    HW257607   8.062   2.649   7.627  0.6979 -0.5156  0.9487
18805SOL     OW57608   2.508   5.539   6.956 -0.2874  0.0445  0.1851
18805SOL    HW157609   2.544   5.477   7.019 -1.6251 -0.0733  0.8812
18805SOL    HW257610   2.488   5.617   7.008 -2.7710 -0.5653  0.2965
18806SOL     OW57611   3.704   1.470   6.383 -0.1695 -0.0071 -0.2445
18806SOL    HW157612   3.745   1.526   6.449  0.6680  2.7774 -2.8980
18806SOL    HW257613   3.773   1.409   6.357 -0.4044 -0.8992  1.1609
18807SOL     OW57614   0.353   7.397   0.910  0.6284  0.0579 -0.1506
18807SOL    HW157615   0.374   7.373   1.000  0.9714 -1.3060 -0.5615
18807SOL    HW257616   0.259   7.412   0.910  0.7253  0.7298  0.5594
18808SOL     OW57617   0.055   4.669   0.932  0.0665  0.3775 -0.1923
18808SOL    HW157618   0.018   4.755   0.949 -0.8961 -0.0740  0.0559
18808SOL    HW257619   0.119   4.684   0.863  0.2587  1.3672  0.1909
18809SOL     OW57620   0.582   4.411   3.137 -0.6331  0.3907  0.5101
18809SOL    HW157621   0.499   4.411   3.089  0.2086  1.3124 -1.0175
18809SOL    HW257622   0.635   4.343   3.096 -0.6672 -0.3422  1.6172
18810SOL     OW57623   3.288   6.931   4.884  0.1728 -0.0745  0.2438
18810SOL    HW157624   3.280   6.968   4.972 -0.5501 -1.9988  1.0479
18810SOL    HW257625   3.199   6.903   4.862  0.7065 -1.5814 -0.1481
18811SOL     OW57626   8.242   6.978   8.330  0.4118 -0.6944 -0.6308
18811SOL    HW157627   8.322   6.988   8.278 -0.2362 -1.6531 -1.8684
18811SOL    HW257628   8.273   6.975   8.421  1.8752 -1.8376 -1.1187
18812SOL     OW57629   4.936   6.834   2.549 -0.0676 -0.4021 -0.2879
18812SOL    HW157630   4.845   6.822   2.521  0.7032 -0.5957 -2.9538
18812SOL    HW257631   4.929   6.883   2.631 -2.5680 -0.7072 -0.2196
18813SOL     OW57632   6.963   3.372   5.226 -0.4012 -0.1748  0.2415
18813SOL    HW157633   6.884   3.392   5.176 -1.1619 -2.0790  0.5789
18813SOL    HW257634   6.993   3.288   5.190 -0.3163 -1.0171  2.1929
18814SOL     OW57635   4.793   1.012   5.301 -0.1353 -0.3789 -0.3648
18814SOL    HW157636   4.844   1.008   5.382 -0.3445  0.8476 -0.1578
18814SOL    HW257637   4.851   1.055   5.238 -0.2522 -0.6271 -0.6421
18815SOL     OW57638   5.732   4.274   5.364  0.2766  0.3070 -0.6721
18815SOL    HW157639   5.826   4.291   5.358  0.9405 -2.4605  0.1781
18815SOL    HW257640   5.716   4.263   5.458 -0.4794 -1.0975 -0.9442
18816SOL     OW57641   6.477   8.379   4.883 -0.0796 -0.1333 -0.0910
18816SOL    HW157642   6.475   8.398   4.977  1.3880 -2.0902  0.3888
18816SOL    HW257643   6.396   8.418   4.849 -0.4624  0.9353  1.8891
18817SOL     OW57644   2.338   4.453   1.645  0.1939 -0.0874 -0.1905
18817SOL    HW157645   2.284   4.384   1.682  1.9198 -1.4083 -0.0191
18817SOL    HW257646   2.425   4.439   1.684  0.7665  1.7395 -0.7110
18818SOL     OW57647   7.573   0.175   0.516 -0.0710 -0.0304  0.2450
18818SOL    HW157648   7.666   0.194   0.520  0.0338 -0.4291 -0.2383
18818SOL    HW257649   7.554   0.130   0.599 -0.0873  1.1150  0.8808
18819SOL     OW57650   6.110   2.829   5.367  0.3056  0.5238 -0.4457
18819SOL    HW157651   6.199   2.799   5.387  0.3559  0.2502 -1.0646
18819SOL    HW257652   6.119   2.923   5.354  0.2560  0.7387  0.8737
18820SOL     OW57653   6.043   0.657   1.817 -0.2684  0.3684  0.2635
18820SOL    HW157654   6.085   0.679   1.901  0.6526 -1.1065  0.2341
18820SOL    HW257655   6.059   0.734   1.762  0.2775  0.8278  1.0290
18821SOL     OW57656   3.897   7.241   7.466  0.1355  0.1040 -0.0745
18821SOL    HW157657   3.854   7.270   7.547  1.7129 -0.0047  0.8294
18821SOL    HW257658   3.989   7.233   7.489  0.5501 -0.3805 -1.7782
18822SOL     OW57659   2.172   7.812   3.634  0.3631 -0.7908 -0.2709
18822SOL    HW157660   2.243   7.838   3.693 -0.4630  0.5351  0.1859
18822SOL    HW257661   2.142   7.728   3.669  1.2134 -1.0121 -0.0370
18823SOL     OW57662   0.390   3.341   5.544  0.2652  0.3811  0.7522
18823SOL    HW157663   0.465   3.282   5.546  0.4918  0.6411  0.1823
18823SOL    HW257664   0.428   3.428   5.531 -0.1731  0.4224 -0.3245
18824SOL     OW57665   7.041   4.640   6.416  0.2807 -0.0134 -0.0566
18824SOL    HW157666   7.049   4.735   6.402  0.7454 -0.0132  0.1883
18824SOL    HW257667   7.017   4.605   6.331  2.8566  0.0048 -0.8657
18825SOL     OW57668   8.557   3.586   5.876 -0.1861 -0.0351 -0.0070
18825SOL    HW157669   8.616   3.588   5.951 -0.6041  1.0003  0.3169
18825SOL    HW257670   8.609   3.618   5.803 -0.5338  1.6283  0.4404
18826SOL     OW57671   8.226   2.092   8.074 -0.2633  0.0084 -0.3261
18826SOL    HW157672   8.151   2.056   8.027  0.9393 -1.3223 -1.3129
18826SOL    HW257673   8.258   2.020   8.128  1.3614 -0.0635 -1.2916
18827SOL     OW57674   2.113   7.881   6.888  0.2056  0.0096  0.3861
18827SOL    HW157675   2.192   7.874   6.834  0.2944 -0.1579  0.5361
18827SOL    HW257676   2.042   7.853   6.830  0.4199 -1.1288  0.6463
18828SOL     OW57677   7.022   5.227   5.642 -0.0523  0.2900 -1.0925
18828SOL    HW157678   6.935   5.267   5.646 -0.2012 -0.1265  1.9324
18828SOL    HW257679   7.014   5.145   5.691  2.1047  0.4077 -0.4115
18829SOL     OW57680   5.270   7.877   0.596  0.3103  0.8873  0.4591
18829SOL    HW157681   5.353   7.845   0.631 -0.0813  0.4151  0.9829
18829SOL    HW257682   5.294   7.930   0.520  1.1348  1.4565  1.1106
18830SOL     OW57683   1.115   7.873   7.704  0.3668 -0.0856 -0.4160
18830SOL    HW157684   1.071   7.862   7.620  0.6022 -1.6358 -0.3519
18830SOL    HW257685   1.201   7.909   7.682 -0.6826  2.5388 -0.5714
18831SOL     OW57686   1.671   3.241   7.300 -0.0552  0.0448 -0.1637
18831SOL    HW157687   1.664   3.160   7.349 -1.6436 -0.2420 -0.7885
18831SOL    HW257688   1.671   3.310   7.366 -1.1822 -0.3724  0.2835
18832SOL     OW57689   1.631   2.517   5.797 -0.1452 -0.0959  0.0993
18832SOL    HW157690   1.655   2.465   5.720 -0.3722  0.8982 -0.6704
18832SOL    HW257691   1.538   2.499   5.810  0.2238 -1.3889  1.0472
18833SOL     OW57692   4.632   1.456   0.646 -0.5151 -0.1497 -0.1783
18833SOL    HW157693   4.696   1.399   0.604 -2.3005 -1.7901 -0.8379
18833SOL    HW257694   4.577   1.488   0.575 -1.5000 -0.2107  0.5326
18834SOL     OW57695   3.742   6.282   4.623 -0.4956 -0.1673  0.2378
18834SOL    HW157696   3.792   6.270   4.543 -1.3722 -0.2194 -0.3130
18834SOL    HW257697   3.661   6.232   4.609 -0.5990 -0.2920  1.2042
18835SOL     OW57698   7.092   7.262   0.858  0.7819 -0.4237 -0.1543
18835SOL    HW157699   7.121   7.174   0.836 -0.4432 -0.8638 -0.1218
18835SOL    HW257700   7.006   7.249   0.898  0.3087  0.8224 -0.7014
18836SOL     OW57701   0.576   0.610   0.275  0.1094 -0.4887  0.1663
18836SOL    HW157702   0.640   0.540   0.286  0.9528  0.3535  0.7880
18836SOL    HW257703   0.494   0.573   0.308  0.3990 -1.3792 -0.0836
18837SOL     OW57704   0.362   5.991   6.405  0.3043  0.0520 -0.3439
18837SOL    HW157705   0.376   6.056   6.475 -2.4636 -0.1105  0.4747
18837SOL    HW257706   0.352   5.908   6.452 -0.5666 -0.2222 -0.9991
18838SOL     OW57707   5.123   6.404   0.186 -0.0416  0.0803 -0.2446
18838SOL    HW157708   5.140   6.349   0.262  3.3252 -0.9384 -1.5664
18838SOL    HW257709   5.183   6.478   0.196 -1.4110  1.3086 -0.6935
18839SOL     OW57710   0.983   1.477   1.294  0.0706  0.1976 -0.5752
18839SOL    HW157711   0.989   1.569   1.268 -1.7916  0.2539 -0.9505
18839SOL    HW257712   0.971   1.479   1.389  1.7433  0.2327 -0.3391
18840SOL     OW57713   4.436   5.813   3.349  0.3425  0.0999  0.3847
18840SOL    HW157714   4.369   5.784   3.286 -0.7757  0.4621  1.3781
18840SOL    HW257715   4.412   5.903   3.369  2.5900  1.1265 -1.1168
18841SOL     OW57716   4.366   6.603   7.388  0.1455 -0.8710  0.1436
18841SOL    HW157717   4.441   6.572   7.440  0.1332 -1.3321 -0.1079
18841SOL    HW257718   4.290   6.590   7.445  0.2374 -0.5383  0.3445
18842SOL     OW57719   4.749   0.187   2.496  0.1660  0.4778  0.9036
18842SOL    HW157720   4.827   0.241   2.512  2.1399 -1.9263  0.0230
18842SOL    HW257721   4.777   0.098   2.515 -1.4211 -0.8698 -2.3824
18843SOL     OW57722   0.983   4.565   2.400  0.6838 -0.1935  0.3767
18843SOL    HW157723   0.917   4.632   2.417  1.1967  0.3458  0.2890
18843SOL    HW257724   0.996   4.567   2.305 -0.4310 -1.5222  0.1642
18844SOL     OW57725   0.458   3.909   4.126 -0.4701 -0.4592 -0.0025
18844SOL    HW157726   0.532   3.881   4.071 -0.6972 -0.0695 -0.5141
18844SOL    HW257727   0.499   3.938   4.207  0.0955  1.1533 -0.8140
18845SOL     OW57728   6.152   8.245   1.773 -0.0838  0.3541 -0.2712
18845SOL    HW157729   6.214   8.218   1.840  0.9823  1.6156 -0.7049
18845SOL    HW257730   6.079   8.284   1.821  0.6278  1.1660  0.1757
18846SOL     OW57731   8.171   8.244   3.076  0.1126 -0.5425  0.4414
18846SOL    HW157732   8.113   8.183   3.029  0.2466 -0.0586 -0.3714
18846SOL    HW257733   8.211   8.190   3.145 -0.7392 -1.0601  0.5415
18847SOL     OW57734   4.907   6.312   4.622 -0.0570  0.0285  0.1000
18847SOL    HW157735   4.914   6.340   4.530  0.1884  0.0981  0.1376
18847SOL    HW257736   4.973   6.365   4.668 -0.4184  0.2425  0.3775
18848SOL     OW57737   1.438   5.669   2.989 -0.0717  0.0933 -0.3831
18848SOL    HW157738   1.408   5.756   2.964 -1.0726 -0.5431 -1.4388
18848SOL    HW257739   1.414   5.661   3.081  1.2056  1.4046  0.1169
18849SOL     OW57740   5.194   4.392   2.501  0.0524  0.2735 -0.0408
18849SOL    HW157741   5.115   4.409   2.553 -1.4039 -0.4996 -1.8802
18849SOL    HW257742   5.171   4.318   2.446  2.0268  0.1621 -0.7932
18850SOL     OW57743   1.216   8.332   7.313  0.2751  0.3396  0.1862
18850SOL    HW157744   1.126   8.354   7.289  0.6584  0.7982 -0.8614
18850SOL    HW257745   1.262   8.322   7.230  0.9411 -1.0164  0.6871
18851SOL     OW57746   7.513   3.775   1.665 -0.2347  0.1321  0.5398
18851SOL    HW157747   7.529   3.866   1.690 -1.7663  0.8329 -0.8393
18851SOL    HW257748   7.418   3.764   1.674 -0.1708 -1.0786 -0.0772
18852SOL     OW57749   6.604   2.548   6.980  0.3099  0.2384 -0.3847
18852SOL    HW157750   6.592   2.586   6.893 -0.7969  0.2940 -0.2200
18852SOL    HW257751   6.595   2.454   6.967  1.2715  0.1582 -0.5057
18853SOL     OW57752   6.879   1.112   2.971  0.1884 -0.2451 -0.2220
18853SOL    HW157753   6.793   1.146   2.994 -1.5498 -3.2100 -1.7081
18853SOL    HW257754   6.924   1.101   3.054 -1.0471  0.8649  0.6369
18854SOL     OW57755   6.399   4.555   6.028 -0.0094 -0.0994 -0.2089
18854SOL    HW157756   6.479   4.509   6.053  0.2656 -0.0237 -0.9313
18854SOL    HW257757   6.329   4.509   6.074  0.6180  0.9994  1.9869
18855SOL     OW57758   5.911   3.466   2.371 -0.3607  0.2520 -0.1122
18855SOL    HW157759   5.887   3.501   2.286 -0.1600  2.3536  0.6269
18855SOL    HW257760   5.829   3.466   2.421 -0.2044  0.4520  0.1486
18856SOL     OW57761   6.639   6.127   5.299  0.1988  0.5328 -0.4158
18856SOL    HW157762   6.634   6.222   5.305 -1.6076  0.4784 -0.6047
18856SOL    HW257763   6.548   6.098   5.299  0.7265 -1.2959  0.9089
18857SOL     OW57764   6.039   7.038   3.994 -0.3135  0.2076 -0.1163
18857SOL    HW157765   6.033   6.957   3.943 -0.7150 -0.0321  0.3050
18857SOL    HW257766   5.997   7.018   4.077  0.4996  0.5378  0.3921
18858SOL     OW57767   4.274   1.586   3.143 -0.4383  0.7121 -0.0120
18858SOL    HW157768   4.312   1.600   3.056 -3.0723  2.5518 -0.9828
18858SOL    HW257769   4.230   1.668   3.164 -4.3585 -1.3026  0.6551
18859SOL     OW57770   1.077   4.352   1.394  0.3959 -0.0559  0.9307
18859SOL    HW157771   1.170   4.346   1.415  0.4970 -1.5840  0.1402
18859SOL    HW257772   1.050   4.437   1.429  2.1706  0.5890  0.8059
18860SOL     OW57773   4.379   4.897   7.760 -0.0798 -0.3656  0.0233
18860SOL    HW157774   4.298   4.896   7.811 -0.3454  1.5707 -0.2814
18860SOL    HW257775   4.446   4.863   7.820 -0.7959 -0.3621  0.8479
18861SOL     OW57776   1.575   6.643   7.183  0.7306  1.1131 -0.4100
18861SOL    HW157777   1.483   6.665   7.169  0.2819  1.1298  2.1464
18861SOL    HW257778   1.577   6.547   7.183  0.2310  1.0528  1.8565
18862SOL     OW57779   4.081   0.952   5.358 -0.2076 -0.0434 -0.0973
18862SOL    HW157780   4.139   1.012   5.310  0.1172 -1.6381 -1.8058
18862SOL    HW257781   4.064   0.996   5.441 -0.7857  2.8665 -1.6380
18863SOL     OW57782   0.363   1.026   6.824 -0.3822 -0.7115 -0.1967
18863SOL    HW157783   0.386   0.955   6.883 -1.4769 -1.2278 -0.3584
18863SOL    HW257784   0.366   0.986   6.737  1.0329 -0.0087 -0.5127
18864SOL     OW57785   7.783   7.002   2.000  0.3126 -0.2825  0.5630
18864SOL    HW157786   7.760   6.959   2.083 -0.4207 -1.1102 -0.0537
18864SOL    HW257787   7.832   6.936   1.952 -1.3597 -0.7047 -0.6511
18865SOL     OW57788   4.810   5.185   4.627 -0.1313  0.6216 -0.0520
18865SOL    HW157789   4.891   5.170   4.676 -1.5053 -3.0409  1.4262
18865SOL    HW257790   4.828   5.264   4.575  3.6974  0.9906  1.5038
18866SOL     OW57791   7.838   1.917   7.090  0.5188 -0.4822  0.5691
18866SOL    HW157792   7.763   1.888   7.142 -0.0657  0.4069  0.2519
18866SOL    HW257793   7.872   1.993   7.138  0.7149 -0.3837  0.2763
18867SOL     OW57794   6.338   5.321   1.236  0.0754  0.0216  0.2349
18867SOL    HW157795   6.289   5.401   1.254  0.3776  0.6294 -1.4069
18867SOL    HW257796   6.304   5.291   1.152  1.4681 -0.3612 -0.2152
18868SOL     OW57797   3.406   4.459   1.496 -0.8738  0.1907 -0.0305
18868SOL    HW157798   3.343   4.398   1.533 -1.3303  0.4553 -0.3598
18868SOL    HW257799   3.353   4.533   1.467 -0.3797  0.5335 -0.0661
18869SOL     OW57800   1.319   0.523   0.201 -0.3832 -0.1021 -0.6871
18869SOL    HW157801   1.385   0.585   0.169 -0.6426  1.5014  1.6111
18869SOL    HW257802   1.274   0.570   0.272 -3.2796 -1.5305 -1.4077
18870SOL     OW57803   8.416   4.962   2.439  0.0473 -0.2252  0.0458
18870SOL    HW157804   8.324   4.963   2.411 -1.0621  0.2459  3.3088
18870SOL    HW257805   8.460   5.023   2.379 -1.6844 -0.5482 -1.6593
18871SOL     OW57806   5.217   4.542   4.983  0.2119 -0.0721 -0.3747
18871SOL    HW157807   5.296   4.502   5.020  1.7701  1.0892 -2.2480
18871SOL    HW257808   5.218   4.632   5.015 -1.1012 -0.3603  0.5936
18872SOL     OW57809   7.107   7.955   3.700 -0.0120 -0.3405  0.3740
18872SOL    HW157810   7.029   7.917   3.658  1.0037  0.1532 -2.1058
18872SOL    HW257811   7.119   8.040   3.657 -0.0667  1.2324  3.1927
18873SOL     OW57812   5.419   2.713   6.714 -0.3444 -0.0292  0.5447
18873SOL    HW157813   5.457   2.700   6.801 -0.5814 -1.6837  0.4353
18873SOL    HW257814   5.384   2.628   6.691 -0.9625  0.5839 -0.8689
18874SOL     OW57815   3.699   7.179   6.068 -0.4027 -0.4673  0.3213
18874SOL    HW157816   3.687   7.273   6.078  0.5754 -0.4161  1.2396
18874SOL    HW257817   3.646   7.141   6.138  0.1627 -0.5285  0.7227
18875SOL     OW57818   2.517   1.011   6.589 -0.5033 -0.4574  0.6498
18875SOL    HW157819   2.479   0.928   6.562  0.2570 -0.8497  0.7524
18875SOL    HW257820   2.594   1.022   6.533  1.3652 -1.5103  2.8509
18876SOL     OW57821   6.561   5.360   4.209  0.1952 -0.0813 -0.0119
18876SOL    HW157822   6.526   5.420   4.144  1.4881  0.7023 -0.0342
18876SOL    HW257823   6.548   5.404   4.293 -0.9335 -0.8224  0.2128
18877SOL     OW57824   7.429   0.792   2.281 -0.2653 -0.0597  0.2507
18877SOL    HW157825   7.366   0.758   2.344 -1.7899 -0.8499 -1.6094
18877SOL    HW257826   7.485   0.717   2.260 -0.1955  0.0181  0.1561
18878SOL     OW57827   8.538   1.727   7.131 -0.3858 -0.3231  0.1308
18878SOL    HW157828   8.568   1.808   7.174 -2.5604  0.8286 -0.3604
18878SOL    HW257829   8.616   1.672   7.126  0.8861  1.2276  1.6470
18879SOL     OW57830   5.885   5.363   6.171 -0.1551 -0.2383  1.0938
18879SOL    HW157831   5.830   5.433   6.205 -0.5611  0.5201 -0.9455
18879SOL    HW257832   5.973   5.400   6.172 -0.5180  0.9320 -1.1830
18880SOL     OW57833   4.523   7.590   2.861 -0.3130  0.3749 -0.0441
18880SOL    HW157834   4.594   7.557   2.916 -1.3227 -1.6341  0.1166
18880SOL    HW257835   4.563   7.602   2.775  1.3026  3.5990  0.9739
18881SOL     OW57836   2.629   3.871   6.563 -0.7529  0.0943 -0.8198
18881SOL    HW157837   2.632   3.888   6.657  0.3902 -1.3460 -0.5716
18881SOL    HW257838   2.597   3.953   6.526  1.6559  1.8058  0.5705
18882SOL     OW57839   2.097   1.223   1.206  0.1846 -0.1516 -0.6222
18882SOL    HW157840   2.023   1.263   1.160  0.9241  1.4606 -0.4527
18882SOL    HW257841   2.079   1.238   1.299  1.1002  1.0161 -0.6036
18883SOL     OW57842   5.136   7.568   6.611  0.4879 -0.2852  0.2652
18883SOL    HW157843   5.126   7.658   6.580 -1.6863 -0.4590  0.3160
18883SOL    HW257844   5.128   7.514   6.532 -0.7946 -0.5201  0.5272
18884SOL     OW57845   7.721   7.119   8.236  0.7062 -0.1906  0.7197
18884SOL    HW157846   7.709   7.025   8.222  1.5990 -0.2609  0.3872
18884SOL    HW257847   7.813   7.135   8.217  0.2709  0.9848 -0.5830
18885SOL     OW57848   1.732   8.184   6.410 -0.0873 -0.2306 -0.3023
18885SOL    HW157849   1.817   8.202   6.451 -0.2167 -0.8900  0.2776
18885SOL    HW257850   1.750   8.188   6.316  0.8485 -1.4257 -0.2091
18886SOL     OW57851   4.108   0.549   2.252 -0.4284  0.0620 -0.0423
18886SOL    HW157852   4.105   0.507   2.166  0.4099  1.6165 -0.8575
18886SOL    HW257853   4.188   0.516   2.293  1.9488  3.0291 -1.9150
18887SOL     OW57854   4.202   5.864   8.587  0.1437 -0.5195  0.7464
18887SOL    HW157855   4.264   5.902   8.525 -0.3095  0.1519  0.6923
18887SOL    HW257856   4.170   5.939   8.638 -1.0334 -0.7733  0.3995
18888SOL     OW57857   8.281   4.713   7.161  0.0499  0.0452  0.0305
18888SOL    HW157858   8.200   4.690   7.115 -0.0073 -0.9367  0.6065
18888SOL    HW257859   8.346   4.722   7.091 -0.6227  1.2682 -0.4779
18889SOL     OW57860   3.298   0.835   1.938 -0.3315  0.2463  0.1054
18889SOL    HW157861   3.306   0.929   1.920  0.3697  1.2497  4.4326
18889SOL    HW257862   3.272   0.831   2.030  2.3088 -3.7933  0.9271
18890SOL     OW57863   3.433   5.034   8.352 -0.5605  0.3632 -0.3460
18890SOL    HW157864   3.377   5.050   8.428 -0.6413  1.4387 -0.6110
18890SOL    HW257865   3.386   5.075   8.279 -0.8316 -1.2372 -1.1329
18891SOL     OW57866   7.701   2.674   6.224 -0.0344  0.2769  0.3340
18891SOL    HW157867   7.607   2.692   6.213 -0.0223 -0.0592 -0.3296
18891SOL    HW257868   7.726   2.627   6.145  0.4093 -0.8005  1.0880
18892SOL     OW57869   7.502   3.877   3.212  0.1049 -0.0870 -0.1254
18892SOL    HW157870   7.535   3.967   3.209 -0.7752  0.2230 -1.3562
18892SOL    HW257871   7.568   3.829   3.261 -1.0508  1.8782  3.7156
18893SOL     OW57872   4.054   6.840   4.548  0.5138  0.5622 -0.2746
18893SOL    HW157873   4.088   6.777   4.484  0.8463  0.6729 -0.2034
18893SOL    HW257874   4.032   6.787   4.625 -1.3149  0.1837 -1.0019
18894SOL     OW57875   6.889   5.725   4.284 -0.2201  0.3063 -0.2303
18894SOL    HW157876   6.981   5.745   4.264  0.3554 -2.2015 -0.3561
18894SOL    HW257877   6.880   5.747   4.377  0.5535  0.4642 -0.1826
18895SOL     OW57878   5.373   4.955   4.350 -0.3542  0.3298 -0.1526
18895SOL    HW157879   5.462   4.984   4.368 -0.4529  0.4826  0.0863
18895SOL    HW257880   5.325   5.035   4.330 -0.3520  0.2100 -0.6564
18896SOL     OW57881   5.535   5.734   8.138 -0.2530 -0.5162  0.5972
18896SOL    HW157882   5.459   5.710   8.190  0.5565 -1.6736  1.2849
18896SOL    HW257883   5.563   5.652   8.097 -0.0219  0.1042 -0.5207
18897SOL     OW57884   5.526   5.321   7.457  0.2701 -0.0189  0.6691
18897SOL    HW157885   5.518   5.409   7.494 -0.5204 -0.1176  0.7471
18897SOL    HW257886   5.566   5.336   7.371  0.4428  0.3841  0.8145
18898SOL     OW57887   3.608   2.532   6.073  0.1007  0.0338  0.1024
18898SOL    HW157888   3.651   2.600   6.021  1.2639 -1.2256 -0.6661
18898SOL    HW257889   3.678   2.470   6.093 -1.0541 -1.2844  0.1818
18899SOL     OW57890   2.535   2.199   0.183 -0.1821 -0.1321 -0.5123
18899SOL    HW157891   2.479   2.166   0.113  0.9619  0.4178 -1.7310
18899SOL    HW257892   2.593   2.125   0.203  0.2246  0.0563 -0.9550
18900SOL     OW57893   0.952   7.608   6.045  0.5543 -0.6957 -0.1008
18900SOL    HW157894   0.960   7.515   6.065  0.6479 -0.5226  0.6714
18900SOL    HW257895   1.041   7.637   6.026  0.6018 -0.6353  0.2181
18901SOL     OW57896   5.625   0.717   6.126  0.0947 -0.2045  0.0644
18901SOL    HW157897   5.572   0.789   6.090  1.1485  0.6631  0.1891
18901SOL    HW257898   5.710   0.757   6.144  1.2384 -1.8524 -1.3665
18902SOL     OW57899   5.836   4.740   8.432  0.2759  0.3548 -0.1581
18902SOL    HW157900   5.865   4.709   8.346 -0.4847  0.0141 -0.2994
18902SOL    HW257901   5.840   4.836   8.426 -0.2629  0.3478 -0.7571
18903SOL     OW57902   1.636   4.416   4.460 -0.4770 -0.1710  0.4164
18903SOL    HW157903   1.594   4.429   4.374 -0.1776  0.3587  0.3434
18903SOL    HW257904   1.699   4.488   4.466  1.0411 -1.4230  0.1564
18904SOL     OW57905   4.982   5.093   3.514 -0.0931 -0.0843  0.5012
18904SOL    HW157906   4.977   5.153   3.439 -1.8102  0.9559  1.3881
18904SOL    HW257907   4.895   5.096   3.553 -0.1044 -2.8786  0.8591
18905SOL     OW57908   7.697   6.849   2.244 -0.5416  0.0539 -0.6164
18905SOL    HW157909   7.686   6.755   2.255  0.1696  0.2158  2.2382
18905SOL    HW257910   7.780   6.869   2.288 -0.8319  2.0552 -0.8725
18906SOL     OW57911   4.066   3.271   5.600  0.3957  0.1298  0.7560
18906SOL    HW157912   4.046   3.340   5.664  0.6932  0.4391  0.5187
18906SOL    HW257913   3.990   3.213   5.604 -1.4312  2.1650 -1.3196
18907SOL     OW57914   1.615   7.262   0.431 -0.4145 -0.7729  0.0390
18907SOL    HW157915   1.678   7.334   0.439 -1.0576  0.0412 -1.7910
18907SOL    HW257916   1.650   7.194   0.489  2.8128 -0.8341 -1.7183
18908SOL     OW57917   4.709   1.665   6.397 -0.5522 -0.7667 -0.0248
18908SOL    HW157918   4.642   1.729   6.372  1.0609  1.2725  0.6106
18908SOL    HW257919   4.660   1.585   6.415 -2.6003  0.0734 -1.4479
18909SOL     OW57920   2.106   2.086   1.174  0.3133  0.4824  0.4567
18909SOL    HW157921   2.143   2.154   1.230  0.8805 -0.5510  1.3831
18909SOL    HW257922   2.119   2.005   1.223 -2.6832 -0.0304  0.5536
18910SOL     OW57923   2.336   6.143   1.430  0.6221 -0.0776  0.1997
18910SOL    HW157924   2.308   6.092   1.507  1.5557 -0.3459  0.3705
18910SOL    HW257925   2.293   6.228   1.441 -0.2494 -0.5260  0.3696
18911SOL     OW57926   2.448   5.371   4.816 -0.2673 -0.1417 -0.1198
18911SOL    HW157927   2.446   5.466   4.828 -0.9615 -0.2821  0.9339
18911SOL    HW257928   2.538   5.352   4.790  0.2222  0.6623  0.9355
18912SOL     OW57929   3.173   2.937   1.030 -0.2646 -0.2721 -0.4113
18912SOL    HW157930   3.149   3.029   1.013 -2.7265 -0.6568  0.5390
18912SOL    HW257931   3.125   2.915   1.110  1.1812 -2.0855  0.0041
18913SOL     OW57932   7.719   0.079   5.029  0.2817 -0.1746  0.3919
18913SOL    HW157933   7.722  -0.001   4.976 -0.6427  0.5273 -0.7640
18913SOL    HW257934   7.628   0.108   5.023  0.7570  1.3535  0.1889
18914SOL     OW57935   1.880   0.923   1.927  0.1819  0.0576 -0.0319
18914SOL    HW157936   1.803   0.886   1.884 -0.5398  2.3279 -0.8318
18914SOL    HW257937   1.866   0.905   2.020 -1.7596  1.0799 -0.0766
18915SOL     OW57938   2.064   2.420   0.058  0.6058 -0.5507  0.3752
18915SOL    HW157939   1.970   2.421   0.073  0.2716 -1.3681 -1.3439
18915SOL    HW257940   2.076   2.475  -0.020  1.4000 -1.2943 -0.0404
18916SOL     OW57941   1.251   6.156   0.195 -0.3337  0.0719 -0.5820
18916SOL    HW157942   1.303   6.236   0.188  2.1107 -1.4775 -1.8290
18916SOL    HW257943   1.209   6.162   0.280  1.4531  1.7689  0.2632
18917SOL     OW57944   8.132   3.127   5.993 -0.1943 -0.8375 -0.0348
18917SOL    HW157945   8.049   3.159   6.029 -0.5825 -3.1946  1.4003
18917SOL    HW257946   8.162   3.197   5.935 -1.9744  1.1132  1.2518
18918SOL     OW57947   4.070   2.757   1.242 -0.4544 -0.2491 -0.2270
18918SOL    HW157948   4.074   2.738   1.148 -3.5875  0.0566 -0.5138
18918SOL    HW257949   4.064   2.671   1.283  0.0309 -0.3479 -0.3494
18919SOL     OW57950   4.993   4.847   7.663  0.3562 -0.3976  0.2329
18919SOL    HW157951   5.019   4.939   7.658  1.6906 -0.8055 -1.0560
18919SOL    HW257952   4.914   4.841   7.610 -0.8649  0.3226  1.8741
18920SOL     OW57953   2.381   2.264   5.607 -0.6697  0.3620  0.1110
18920SOL    HW157954   2.288   2.281   5.593 -0.3325  1.6851 -0.6612
18920SOL    HW257955   2.422   2.350   5.605  0.8633 -0.3418 -1.7547
18921SOL     OW57956   3.740   1.613   2.131  0.3394 -0.0900  0.3317
18921SOL    HW157957   3.749   1.629   2.225 -0.5204 -0.2899  0.4570
18921SOL    HW257958   3.824   1.641   2.094  1.0454 -0.8794  1.2643
18922SOL     OW57959   7.568   6.550   6.203 -0.1372 -0.5609  0.3187
18922SOL    HW157960   7.540   6.485   6.267  0.6674  0.7850  2.1311
18922SOL    HW257961   7.487   6.575   6.158 -0.8219 -1.1688  1.1703
18923SOL     OW57962   1.354   2.917   3.871 -0.1871  0.6958  0.1602
18923SOL    HW157963   1.406   2.949   3.946 -1.8017  0.9996  1.2020
18923SOL    HW257964   1.285   2.864   3.911 -0.0808 -0.5781 -1.2680
18924SOL     OW57965   2.719   6.803   2.452  0.1179 -0.0287  0.2991
18924SOL    HW157966   2.762   6.835   2.372  0.4648  2.0382  1.2333
18924SOL    HW257967   2.644   6.862   2.463 -0.1587 -0.5538  1.2960
18925SOL     OW57968   0.431   7.557   0.639  0.0401 -0.3745 -0.2088
18925SOL    HW157969   0.365   7.627   0.641  0.4714  0.0657 -0.7967
18925SOL    HW257970   0.427   7.523   0.549 -0.3249 -1.2662  0.1402
18926SOL     OW57971   0.232   7.012   4.178  0.0991 -0.7042  0.3101
18926SOL    HW157972   0.186   7.031   4.097  0.7790 -2.7696 -0.6367
18926SOL    HW257973   0.183   7.058   4.246 -0.9072  0.4754 -1.1647
18927SOL     OW57974   7.747   7.584   7.540  0.0638  0.2667 -0.4177
18927SOL    HW157975   7.766   7.513   7.601  0.1822  1.0650  0.5100
18927SOL    HW257976   7.652   7.580   7.528  0.3437 -1.6401 -2.4267
18928SOL     OW57977   5.991   3.147   6.824  0.0945 -0.5311 -0.0478
18928SOL    HW157978   6.059   3.208   6.796 -0.4507 -0.0815 -0.4067
18928SOL    HW257979   5.935   3.198   6.882  1.7081 -1.6708  2.7236
18929SOL     OW57980   6.551   3.767   7.555  0.5144 -0.4051 -0.8447
18929SOL    HW157981   6.463   3.783   7.588  0.6094 -1.7946  0.1416
18929SOL    HW257982   6.572   3.845   7.503 -1.6256 -0.4302 -1.8313
18930SOL     OW57983   6.791   5.516   3.238 -0.0368  0.2976  0.3705
18930SOL    HW157984   6.764   5.541   3.150  1.5949  0.9625  0.0135
18930SOL    HW257985   6.853   5.584   3.265  0.3958 -0.5161  1.5569
18931SOL     OW57986   3.997   4.077   4.320 -0.2617  0.2789 -0.2613
18931SOL    HW157987   3.941   4.151   4.344 -0.6286 -0.2838  0.6468
18931SOL    HW257988   3.940   4.001   4.322 -0.3078  0.1450 -2.8819
18932SOL     OW57989   0.433   4.876   7.056 -0.2067  0.4769 -0.6313
18932SOL    HW157990   0.498   4.935   7.017 -0.9517  2.5281  1.0494
18932SOL    HW257991   0.467   4.857   7.143 -0.6600 -0.4909 -0.6581
18933SOL     OW57992   3.486   5.019   4.192  0.1669  0.1622 -0.6621
18933SOL    HW157993   3.514   4.995   4.103  0.7641  1.4192 -0.8326
18933SOL    HW257994   3.398   5.056   4.180 -0.5792 -1.4394 -0.4509
18934SOL     OW57995   5.401   6.809   1.517  0.9599  0.0272 -0.2111
18934SOL    HW157996   5.424   6.871   1.587  0.1199 -0.1263  0.2198
18934SOL    HW257997   5.383   6.865   1.441  1.2403  0.2405 -0.1254
18935SOL     OW57998   0.895   3.480   5.078 -0.8001 -0.3522 -0.2297
18935SOL    HW157999   0.854   3.400   5.110 -0.4966  0.4336  2.4518
18935SOL    HW258000   0.825   3.546   5.084 -0.2552  0.1780  0.6251
18936SOL     OW58001   7.652   6.519   1.827 -0.0622  0.2805  0.7807
18936SOL    HW158002   7.679   6.459   1.758 -1.5393  0.0065  0.4178
18936SOL    HW258003   7.676   6.606   1.795 -1.9237  0.2970 -0.7235
18937SOL     OW58004   3.354   1.766   7.501 -0.0170  0.2859  0.3387
18937SOL    HW158005   3.314   1.683   7.476 -1.4771  0.5334  1.6729
18937SOL    HW258006   3.445   1.758   7.473 -0.7558 -0.6626 -2.0252
18938SOL     OW58007   6.303   5.590   7.213 -0.2564 -0.6985 -0.1689
18938SOL    HW158008   6.347   5.643   7.280 -0.2542  0.0950 -0.7823
18938SOL    HW258009   6.232   5.646   7.181  1.1320 -0.1057 -2.4626
18939SOL     OW58010   0.214   6.704   5.877 -0.5335 -0.1445  0.4373
18939SOL    HW158011   0.273   6.719   5.802 -1.2931  0.6639 -0.0110
18939SOL    HW258012   0.187   6.791   5.904 -0.2894 -0.4314  1.6584
18940SOL     OW58013   8.062   4.145   0.388 -0.2510  0.3147  0.5212
18940SOL    HW158014   8.026   4.197   0.460  0.3462  0.5752  0.6421
18940SOL    HW258015   8.043   4.196   0.310 -0.7520  0.1128  0.5042
18941SOL     OW58016   2.341   5.105   5.035 -0.4760  0.7710 -0.4066
18941SOL    HW158017   2.367   5.136   4.949 -0.1553  0.3087 -0.4769
18941SOL    HW258018   2.270   5.042   5.018 -0.3080  0.5635 -0.3448
18942SOL     OW58019   0.399   4.774   5.046 -0.0528  0.7845 -0.0863
18942SOL    HW158020   0.458   4.809   5.113 -0.0857  0.8578 -0.0945
18942SOL    HW258021   0.364   4.852   5.003 -2.3253  0.8865  1.7761
18943SOL     OW58022   1.633   7.693   1.081 -0.4132 -0.4388 -0.4810
18943SOL    HW158023   1.614   7.772   1.131  0.0611 -0.5842 -0.0614
18943SOL    HW258024   1.652   7.627   1.147 -1.0527 -0.9717 -0.8193
18944SOL     OW58025   4.164   4.439   2.169  0.2360  0.2112  0.3000
18944SOL    HW158026   4.177   4.362   2.224  0.3406 -0.5867 -0.8119
18944SOL    HW258027   4.189   4.513   2.225 -0.9323 -0.4442  1.7560
18945SOL     OW58028   7.075   6.319   7.613 -0.1776  0.3955  0.3381
18945SOL    HW158029   7.040   6.283   7.694 -0.4716 -1.4292 -0.5576
18945SOL    HW258030   7.166   6.341   7.634 -0.0299 -0.7594  0.9827
18946SOL     OW58031   8.522   1.089   3.538 -0.0789  0.6474 -0.0258
18946SOL    HW158032   8.507   1.039   3.618  0.7516 -0.2888 -0.4447
18946SOL    HW258033   8.554   1.025   3.475 -0.6696  1.3836 -1.0998
18947SOL     OW58034   3.524   8.446   3.809 -0.4403 -0.1357  0.0497
18947SOL    HW158035   3.506   8.353   3.794 -0.7565 -0.3416  1.6125
18947SOL    HW258036   3.537   8.481   3.721 -0.6755 -1.5784 -0.5995
18948SOL     OW58037   5.188   2.624   6.358 -0.8423  0.0800 -0.3129
18948SOL    HW158038   5.121   2.627   6.291  0.4831 -1.4829 -1.8025
18948SOL    HW258039   5.142   2.642   6.440 -2.8693  0.0283 -1.3960
18949SOL     OW58040   3.149   0.506   8.310 -0.5519 -0.5921 -0.6405
18949SOL    HW158041   3.207   0.480   8.238  1.7501  2.8171 -0.2655
18949SOL    HW258042   3.188   0.466   8.388 -0.0615 -0.2351 -0.6957
18950SOL     OW58043   1.163   2.803   4.059  0.3902 -0.1926  0.5762
18950SOL    HW158044   1.144   2.785   4.150 -1.1270 -0.4973  0.2178
18950SOL    HW258045   1.145   2.720   4.014 -1.3392  0.6197 -0.3234
18951SOL     OW58046   3.359   4.933   8.073 -0.2040  0.3562 -0.6851
18951SOL    HW158047   3.386   4.876   8.145 -0.8955 -1.5768 -1.8583
18951SOL    HW258048   3.439   4.947   8.022 -0.4500 -1.7917 -1.7923
18952SOL     OW58049   3.619   7.214   2.321  0.0907  0.0128 -0.3281
18952SOL    HW158050   3.707   7.248   2.340 -0.1352  0.7042 -0.4872
18952SOL    HW258051   3.585   7.187   2.406  1.1314 -1.9726 -0.4767
18953SOL     OW58052   7.784   2.583   0.012 -0.1210 -0.0570  0.4804
18953SOL    HW158053   7.844   2.580  -0.062 -1.8645 -0.2949 -0.9733
18953SOL    HW258054   7.748   2.672   0.009 -1.7129 -0.7019 -0.2363
18954SOL     OW58055   5.363   4.184   0.010 -0.6388 -0.1795 -0.4111
18954SOL    HW158056   5.422   4.181  -0.065 -1.6257 -0.1237 -1.2149
18954SOL    HW258057   5.402   4.125   0.075  0.1050 -0.4040 -1.0563
18955SOL     OW58058   5.685   2.144   0.909  0.0762  0.4949 -0.0308
18955SOL    HW158059   5.598   2.185   0.915 -0.1560  0.2685 -1.5733
18955SOL    HW258060   5.686   2.080   0.981  0.2329  2.7278  2.0900
18956SOL     OW58061   6.800   8.297   5.887  0.1309  0.8409 -0.0168
18956SOL    HW158062   6.883   8.250   5.884 -0.1233  0.4182 -1.0208
18956SOL    HW258063   6.745   8.253   5.822 -1.4262  0.1113  1.7239
18957SOL     OW58064   8.362   1.879   8.239  0.2403  0.7810  0.5680
18957SOL    HW158065   8.335   1.788   8.231  1.0003  0.0673  4.3495
18957SOL    HW258066   8.435   1.888   8.178 -0.6616 -0.6886 -0.8205
18958SOL     OW58067   5.012   6.061   0.195 -0.5347 -0.1535  0.1244
18958SOL    HW158068   4.928   6.105   0.176 -0.1789  0.2012 -0.6993
18958SOL    HW258069   5.016   6.056   0.290 -0.5638  1.6660  0.2539
18959SOL     OW58070   8.450   4.678   1.744  0.0556 -0.3621 -0.0604
18959SOL    HW158071   8.519   4.663   1.809 -0.5847  1.3560  1.0868
18959SOL    HW258072   8.388   4.606   1.758 -0.1094  0.0247  1.3234
18960SOL     OW58073   0.353   4.209   3.794  0.1192  0.1150  0.1733
18960SOL    HW158074   0.338   4.300   3.819  1.5769  0.8278 -1.3693
18960SOL    HW258075   0.307   4.198   3.710  0.0926 -0.5340  0.2612
18961SOL     OW58076   4.508   3.504   6.961 -0.0468 -0.5339 -0.1472
18961SOL    HW158077   4.518   3.476   7.051  0.5260  0.8899  0.2613
18961SOL    HW258078   4.597   3.504   6.925 -0.1367 -0.1038 -0.3873
18962SOL     OW58079   6.961   1.353   3.355 -0.0921  0.3710  0.2405
18962SOL    HW158080   6.950   1.391   3.268 -3.1188 -0.4924  0.1281
18962SOL    HW258081   6.971   1.428   3.413 -0.3162  1.0713 -0.6068
18963SOL     OW58082   0.204   2.070   0.021 -0.7445  0.0320  0.1888
18963SOL    HW158083   0.132   2.132   0.012 -0.1382  0.8923  1.0603
18963SOL    HW258084   0.175   2.010   0.090 -1.2535 -0.5484 -0.5236
18964SOL     OW58085   8.499   5.064   5.600 -0.0160  0.3319  0.5699
18964SOL    HW158086   8.496   5.065   5.504 -0.6972 -0.0669  0.5808
18964SOL    HW258087   8.461   4.979   5.624  0.6608  0.1924  1.1790
18965SOL     OW58088   5.363   5.245   5.657 -0.0050 -0.1161 -0.1961
18965SOL    HW158089   5.404   5.164   5.627  0.3225 -0.4545  1.0824
18965SOL    HW258090   5.282   5.251   5.606  1.2795  0.2406 -2.3226
18966SOL     OW58091   0.922   6.420   5.321 -0.6089  0.1838  0.3453
18966SOL    HW158092   0.916   6.473   5.241 -0.4998 -0.4232 -0.0678
18966SOL    HW258093   1.005   6.445   5.360 -1.0974  1.1850  0.7755
18967SOL     OW58094   2.650   1.773   5.726 -0.2946  0.2279  0.2377
18967SOL    HW158095   2.570   1.794   5.678 -0.2011 -1.1384 -0.5543
18967SOL    HW258096   2.705   1.727   5.663  1.0811  1.0241  0.8133
18968SOL     OW58097   7.863   3.889   0.784  0.0512  0.2131 -0.7251
18968SOL    HW158098   7.932   3.937   0.829 -0.2191 -0.3476  0.3219
18968SOL    HW258099   7.877   3.907   0.691  0.9173  1.0055 -0.4498
18969SOL     OW58100   2.901   1.454   4.105  0.4003  0.2128 -0.3104
18969SOL    HW158101   2.997   1.447   4.106  0.4611  1.0377  0.6833
18969SOL    HW258102   2.876   1.422   4.018  1.3399 -2.7549  0.3743
18970SOL     OW58103   1.516   6.089   7.083 -0.3173  0.3000  0.1631
18970SOL    HW158104   1.590   6.119   7.031 -0.5076  0.6699  0.1037
18970SOL    HW258105   1.473   6.023   7.028 -0.2502  0.3589  0.0398
18971SOL     OW58106   1.562   4.747   1.298  0.0735 -0.7344 -0.4076
18971SOL    HW158107   1.518   4.760   1.382  1.4434  0.5399  0.1668
18971SOL    HW258108   1.652   4.724   1.322  0.6535  0.2909 -1.5148
18972SOL     OW58109   2.392   0.915   1.496  0.2958  0.1614  0.0731
18972SOL    HW158110   2.420   0.834   1.539  0.0976  0.0985  0.0861
18972SOL    HW258111   2.394   0.981   1.566  1.1079  0.3155 -0.0927
18973SOL     OW58112   1.042   3.557   3.745 -0.4392 -0.0394 -0.6102
18973SOL    HW158113   0.952   3.540   3.770 -0.5638  0.1231 -0.9368
18973SOL    HW258114   1.046   3.532   3.652 -0.0220 -0.5179 -0.4690
18974SOL     OW58115   1.746   4.654   8.511  0.5573  0.0135 -0.5116
18974SOL    HW158116   1.804   4.627   8.440  0.8556 -1.0802  0.1157
18974SOL    HW258117   1.758   4.748   8.518  0.5653  0.1299 -1.8655
18975SOL     OW58118   4.997   6.220   8.364 -0.0650  0.1957 -0.0450
18975SOL    HW158119   4.986   6.125   8.365  0.0263  0.1738 -0.7137
18975SOL    HW258120   5.086   6.234   8.397 -0.1824  0.0647  0.3263
18976SOL     OW58121   4.421   3.355   6.660 -0.1745  0.6478  0.2173
18976SOL    HW158122   4.432   3.448   6.678  1.7395  0.4980  0.1262
18976SOL    HW258123   4.399   3.316   6.744 -0.6642  1.1337  0.3170
18977SOL     OW58124   0.896   4.834   2.128 -0.3088 -0.3020 -0.5045
18977SOL    HW158125   0.815   4.868   2.088  0.2374 -0.1836 -1.5497
18977SOL    HW258126   0.907   4.887   2.207 -1.3304 -0.4226 -0.2632
18978SOL     OW58127   0.590   0.942   4.121  0.2179 -0.2462 -0.2221
18978SOL    HW158128   0.511   0.934   4.067 -0.3263 -1.0441  0.6661
18978SOL    HW258129   0.647   0.871   4.090  0.4215  0.0755 -0.5880
18979SOL     OW58130   3.518   6.322   0.042 -0.4336 -0.1207 -0.3517
18979SOL    HW158131   3.583   6.254   0.060 -1.3443 -0.8419  0.2922
18979SOL    HW258132   3.563   6.404   0.063 -0.5774 -0.7508  2.8560
18980SOL     OW58133   7.121   6.933   3.917  0.2755  0.2675  0.7053
18980SOL    HW158134   7.201   6.887   3.892  0.2722 -0.1646  1.4678
18980SOL    HW258135   7.151   7.022   3.938  0.5494  0.1236  0.9362
18981SOL     OW58136   4.865   6.999   0.313 -0.0791  0.0404 -0.2302
18981SOL    HW158137   4.944   6.984   0.261  0.7019  2.1995  0.2466
18981SOL    HW258138   4.793   6.993   0.250  0.6577  0.3661 -1.1190
18982SOL     OW58139   0.122   2.420   6.257 -0.6857 -0.0291  0.6596
18982SOL    HW158140   0.053   2.354   6.250 -0.3617 -0.5751  2.2464
18982SOL    HW258141   0.094   2.476   6.329 -0.1838  0.6205  0.3529
18983SOL     OW58142   6.323   5.067   6.585  0.3725  0.1606  0.1386
18983SOL    HW158143   6.285   4.980   6.588 -1.1531  0.7912  0.0937
18983SOL    HW258144   6.249   5.126   6.597  0.6195  1.6050 -3.7899
18984SOL     OW58145   4.750   2.123   1.849  0.3639  0.3570  0.1214
18984SOL    HW158146   4.663   2.102   1.814 -1.2139  0.8950  3.3853
18984SOL    HW258147   4.779   2.198   1.798 -1.4023  0.6014 -0.5850
18985SOL     OW58148   0.497   0.108   6.026  0.2988 -0.5767  0.8029
18985SOL    HW158149   0.582   0.087   5.987  0.3660  0.1642  0.5271
18985SOL    HW258150   0.500   0.069   6.113  0.8282 -0.7671  0.7020
18986SOL     OW58151   3.107   7.676   1.699  0.1561 -0.1279 -0.4826
18986SOL    HW158152   3.079   7.586   1.714 -2.0825  0.6512  0.3307
18986SOL    HW258153   3.058   7.704   1.621  0.3622  0.5874 -0.3575
18987SOL     OW58154   1.869   6.578   5.467  0.1450  0.2194 -0.5506
18987SOL    HW158155   1.804   6.577   5.537  0.1174 -2.0593 -0.5325
18987SOL    HW258156   1.951   6.551   5.509  0.5591  0.7092 -1.0310
18988SOL     OW58157   2.069   6.973   0.475 -0.2033 -0.3045 -0.3712
18988SOL    HW158158   2.055   6.882   0.451  1.8963 -0.8644  0.3612
18988SOL    HW258159   2.156   6.975   0.514 -0.7358  1.7871  0.8672
18989SOL     OW58160   0.383   0.895   2.675 -0.1067  0.1079 -0.0495
18989SOL    HW158161   0.386   0.893   2.580  0.1717  1.9541 -0.1210
18989SOL    HW258162   0.417   0.809   2.702 -3.3219 -1.8174 -1.5627
18990SOL     OW58163   4.600   2.516   4.767 -0.1338  0.1742  0.3105
18990SOL    HW158164   4.562   2.444   4.717  0.5796  0.3942 -0.5918
18990SOL    HW258165   4.661   2.558   4.705 -1.1498  2.0740  0.5215
18991SOL     OW58166   1.198   4.444   5.818  0.2221 -0.1618  0.0909
18991SOL    HW158167   1.143   4.490   5.881  1.4195 -0.4119  1.3588
18991SOL    HW258168   1.155   4.359   5.805 -0.5007  0.2350 -0.1175
18992SOL     OW58169   7.930   5.434   3.262  0.4984  0.0189  0.4182
18992SOL    HW158170   7.971   5.519   3.244 -1.0479  0.6869 -0.1093
18992SOL    HW258171   7.837   5.453   3.271 -0.4324 -1.9704 -2.9334
18993SOL     OW58172   0.228   2.818   8.297  0.5267  0.3222 -0.2838
18993SOL    HW158173   0.226   2.893   8.238  1.7994  0.8951  0.3748
18993SOL    HW258174   0.249   2.855   8.383 -0.2836 -0.6222  0.3444
18994SOL     OW58175   3.033   8.529   5.243  0.6849  0.3152  0.6115
18994SOL    HW158176   2.958   8.568   5.197 -0.1361 -0.4680  1.2504
18994SOL    HW258177   2.995   8.461   5.298  1.7101  0.8216  2.0055
18995SOL     OW58178   7.375   7.088   6.216  0.2158  0.0462 -0.4669
18995SOL    HW158179   7.413   7.175   6.205 -1.9365  1.0903 -0.1759
18995SOL    HW258180   7.396   7.043   6.135  0.7836  1.0557 -0.9080
18996SOL     OW58181   7.813   1.362   4.932  0.4245 -0.1160  0.2628
18996SOL    HW158182   7.760   1.285   4.951 -1.7877  1.2655  0.0442
18996SOL    HW258183   7.800   1.378   4.839  1.2108  0.2874  0.2101
18997SOL     OW58184   1.399   3.991   7.894  0.2185 -0.8833  0.3381
18997SOL    HW158185   1.405   3.896   7.904  0.5407 -0.8840  0.1442
18997SOL    HW258186   1.482   4.016   7.854 -1.2748 -1.0051 -3.2627
18998SOL     OW58187   8.185   5.652   3.456 -0.3772 -0.2123  0.0472
18998SOL    HW158188   8.111   5.635   3.514 -0.4140  2.4780  0.9177
18998SOL    HW258189   8.145   5.676   3.372 -0.3425 -2.6173 -0.7358
18999SOL     OW58190   7.019   2.716   3.866 -0.4438 -0.2145  0.3198
18999SOL    HW158191   6.934   2.672   3.875 -0.0605 -0.7471  1.4419
18999SOL    HW258192   7.058   2.677   3.789 -0.1374 -1.8341  1.2603
19000SOL     OW58193   4.178   5.156   3.512 -0.2091  0.4683 -0.2288
19000SOL    HW158194   4.106   5.121   3.563 -0.8733 -0.6368 -1.8416
19000SOL    HW258195   4.216   5.225   3.567 -2.1365  0.6994  0.8789
19001SOL     OW58196   4.212   7.272   7.988 -0.2364 -0.1533 -0.4753
19001SOL    HW158197   4.199   7.179   7.969  0.5012 -0.5260  0.7268
19001SOL    HW258198   4.191   7.281   8.081  0.6114  0.6951 -0.3521
19002SOL     OW58199   8.483   2.333   2.192  0.5787  0.0633 -0.0172
19002SOL    HW158200   8.444   2.397   2.251  0.0166  0.9347 -1.2818
19002SOL    HW258201   8.456   2.248   2.228  0.7196  0.5368  1.2651
19003SOL     OW58202   1.075   8.459   0.981 -0.0626 -0.3089  0.4307
19003SOL    HW158203   1.151   8.517   0.975 -0.4594  0.1942  0.1354
19003SOL    HW258204   1.006   8.506   0.935  0.2668 -2.1609 -2.1581
19004SOL     OW58205   6.472   5.398   3.360  0.4004 -0.3886  0.0448
19004SOL    HW158206   6.557   5.385   3.401  0.3652  0.8372  0.5393
19004SOL    HW258207   6.492   5.437   3.275  0.3440  0.0044  0.2068
19005SOL     OW58208   0.237   4.260   1.421 -0.4105  0.3461 -0.4265
19005SOL    HW158209   0.291   4.339   1.418 -0.3402  0.2763 -1.6626
19005SOL    HW258210   0.240   4.231   1.512 -0.7964  2.0179  0.1553
19006SOL     OW58211   2.971   2.612   7.704 -0.0712 -0.1371  0.3087
19006SOL    HW158212   2.906   2.633   7.637 -1.3834 -0.8071  1.3444
19006SOL    HW258213   2.942   2.659   7.782  1.2484  0.3451  0.5412
19007SOL     OW58214   0.629   7.960   4.795  0.1140 -0.4560 -0.1683
19007SOL    HW158215   0.695   7.906   4.750 -0.7464 -1.1560 -0.6210
19007SOL    HW258216   0.635   8.046   4.752  0.6938 -0.5219 -0.2309
19008SOL     OW58217   7.775   7.410   4.842 -0.0934 -0.1555 -0.9464
19008SOL    HW158218   7.741   7.322   4.860 -0.0860 -0.6126 -2.9828
19008SOL    HW258219   7.862   7.411   4.881 -1.5135  0.3762  2.6397
19009SOL     OW58220   3.639   4.485   4.827 -0.2502 -0.1872 -0.2188
19009SOL    HW158221   3.695   4.552   4.866 -0.0100  0.2733 -1.3102
19009SOL    HW258222   3.613   4.522   4.743 -2.4733 -0.2444  0.3735
19010SOL     OW58223   4.734   6.328   7.025 -0.7785 -0.1988 -0.7300
19010SOL    HW158224   4.731   6.417   7.059  1.3671 -0.8063  1.3069
19010SOL    HW258225   4.757   6.274   7.100  0.6386 -2.1238 -2.4214
19011SOL     OW58226   4.920   7.644   2.956 -0.4294  0.0956 -0.1178
19011SOL    HW158227   4.836   7.618   2.917 -0.2086 -0.1161 -0.4538
19011SOL    HW258228   4.979   7.571   2.937  0.0811  0.6506 -0.7009
19012SOL     OW58229   3.514   4.252   7.825 -0.0748  0.1302 -0.5492
19012SOL    HW158230   3.519   4.347   7.838 -0.6535 -0.0067  0.9105
19012SOL    HW258231   3.453   4.241   7.752 -0.7935  0.8660 -0.0759
19013SOL     OW58232   4.812   2.635   7.823  0.4244 -0.3491 -0.2449
19013SOL    HW158233   4.796   2.727   7.804  1.9808 -0.2646 -1.3519
19013SOL    HW258234   4.749   2.613   7.892  0.3087  1.6402  0.3351
19014SOL     OW58235   5.940   2.877   7.501  0.0330  0.1944 -0.2623
19014SOL    HW158236   6.008   2.811   7.513 -0.5628 -0.6447 -1.3406
19014SOL    HW258237   5.869   2.850   7.559  0.7549  1.3282  1.2179
19015SOL     OW58238   1.967   5.302   2.725 -0.6640 -0.1293  0.1023
19015SOL    HW158239   1.885   5.279   2.680  0.0166 -0.6923 -0.8982
19015SOL    HW258240   2.035   5.286   2.660  0.2128  0.7779  0.7715
19016SOL     OW58241   3.785   3.981   4.057 -0.0980  0.4846  0.0381
19016SOL    HW158242   3.826   3.912   4.109  2.0187  1.4698 -0.2146
19016SOL    HW258243   3.702   3.999   4.101 -0.4503 -1.8124  0.4192
19017SOL     OW58244   7.560   2.191   7.264  0.3258  0.5179  0.4093
19017SOL    HW158245   7.596   2.118   7.315 -1.1818  1.3914  2.9306
19017SOL    HW258246   7.469   2.166   7.248  0.1573  1.2873  0.1420
19018SOL     OW58247   8.042   2.654   2.084  0.0255 -0.1363 -0.7907
19018SOL    HW158248   7.978   2.722   2.106  0.7549  0.3442 -0.0600
19018SOL    HW258249   7.996   2.571   2.102 -0.3971  0.1978 -0.2831
19019SOL     OW58250   2.987   7.955   6.192 -0.0657  0.0460  0.2718
19019SOL    HW158251   2.900   7.916   6.179 -0.6118  1.2813  0.1387
19019SOL    HW258252   2.982   7.997   6.278  0.4499  0.0185  0.3207
19020SOL     OW58253   6.439   1.562   3.932  0.3236  0.3235 -0.2399
19020SOL    HW158254   6.449   1.633   3.869 -0.3377 -1.3012 -2.3113
19020SOL    HW258255   6.348   1.532   3.919  0.9374 -1.6397 -0.3457
19021SOL     OW58256   5.627   1.345   3.138 -0.1243 -0.2598  0.0416
19021SOL    HW158257   5.586   1.259   3.143 -0.9622  0.0658 -0.7863
19021SOL    HW258258   5.721   1.328   3.147 -0.1544 -1.4290 -1.4173
19022SOL     OW58259   8.209   1.874   6.542 -0.6069 -0.0204  0.2443
19022SOL    HW158260   8.132   1.818   6.532 -1.8328  1.6340 -0.1249
19022SOL    HW258261   8.185   1.936   6.611  0.3298  0.6264  0.0134
19023SOL     OW58262   7.963   3.074   0.367 -0.0867 -0.0410 -0.0724
19023SOL    HW158263   7.923   3.141   0.423 -0.3959 -0.6406  0.4464
19023SOL    HW258264   7.969   2.997   0.423  1.7802 -0.0032 -0.1420
19024SOL     OW58265   2.856   0.306   4.856 -0.2246  0.2726 -0.7991
19024SOL    HW158266   2.821   0.385   4.898 -0.2803  1.2939 -2.6776
19024SOL    HW258267   2.933   0.336   4.809 -1.1101 -0.4582 -2.8031
19025SOL     OW58268   6.641   4.320   4.045  0.6000  0.0222  0.3052
19025SOL    HW158269   6.556   4.282   4.022  1.1696 -0.9099 -0.3036
19025SOL    HW258270   6.640   4.407   4.006 -0.2732  0.2099  0.7301
19026SOL     OW58271   7.252   8.331   2.633 -0.1729 -0.5576 -0.3719
19026SOL    HW158272   7.299   8.249   2.650  0.2597 -0.0435  1.0136
19026SOL    HW258273   7.180   8.305   2.575  0.5362 -1.7337 -0.7799
19027SOL     OW58274   7.813   8.018   6.481  0.2370  0.3858 -0.4233
19027SOL    HW158275   7.815   8.104   6.522  1.6518  0.6402 -0.9682
19027SOL    HW258276   7.892   7.974   6.512 -0.4856 -0.7519 -0.1201
19028SOL     OW58277   0.593   0.317   7.448 -0.2280 -0.0029  0.4332
19028SOL    HW158278   0.632   0.252   7.390 -2.1806  0.5659 -1.7019
19028SOL    HW258279   0.510   0.277   7.476 -0.2681  0.5634  1.1429
19029SOL     OW58280   6.506   2.905   1.890  0.5763 -0.0308  0.2933
19029SOL    HW158281   6.558   2.898   1.810  0.9754  0.8814  0.4585
19029SOL    HW258282   6.530   2.828   1.942  0.4551 -0.5250 -0.3856
19030SOL     OW58283   0.839   3.675   6.287 -0.0009  0.0542  0.0152
19030SOL    HW158284   0.831   3.758   6.240 -1.0434 -0.2724 -0.4087
19030SOL    HW258285   0.933   3.657   6.287  0.4963  2.1747  1.8007
19031SOL     OW58286   5.184   7.652   5.033  0.0406  0.1062 -0.0864
19031SOL    HW158287   5.155   7.732   5.077 -0.0899 -0.4655  0.9077
19031SOL    HW258288   5.201   7.591   5.104  1.1611 -0.4178 -0.7819
19032SOL     OW58289   3.027   1.777   7.485  0.3595 -0.4502  0.0121
19032SOL    HW158290   3.076   1.818   7.413 -2.4718  1.7472 -0.8411
19032SOL    HW258291   3.080   1.795   7.562  2.3797 -0.8919 -1.1961
19033SOL     OW58292   2.138   2.296   5.519 -0.1858 -0.4335 -0.6961
19033SOL    HW158293   2.124   2.365   5.454  1.0076  0.7380  0.2279
19033SOL    HW258294   2.061   2.302   5.576  0.7752  1.5177  0.5167
19034SOL     OW58295   3.606   4.415   6.563 -0.2460 -0.2976 -0.2573
19034SOL    HW158296   3.670   4.429   6.493 -0.3620 -2.2613 -0.8168
19034SOL    HW258297   3.643   4.460   6.639  1.2800 -0.5188 -0.8410
19035SOL     OW58298   7.346   2.007   3.703  0.0054 -0.2117  0.3062
19035SOL    HW158299   7.404   1.993   3.778  0.3558  0.1209  0.1038
19035SOL    HW258300   7.333   2.102   3.700  1.0011 -0.0716 -0.7783
19036SOL     OW58301   0.458   3.871   6.247 -0.3692 -0.1116  0.6998
19036SOL    HW158302   0.499   3.819   6.317 -0.8819 -0.2035  0.9375
19036SOL    HW258303   0.477   3.823   6.167 -0.5005 -0.4572  0.8755
19037SOL     OW58304   1.657   4.199   4.880  0.5420 -0.1031 -0.5348
19037SOL    HW158305   1.736   4.171   4.927  0.8787  1.5936 -0.0289
19037SOL    HW258306   1.662   4.153   4.796  0.4888 -2.3605  0.6298
19038SOL     OW58307   7.306   7.974   3.887 -0.2003  0.5821  0.2936
19038SOL    HW158308   7.221   7.946   3.852  0.6149 -0.1887 -1.1418
19038SOL    HW258309   7.339   8.037   3.823  0.2493  0.9935  0.9221
19039SOL     OW58310   4.019   4.418   4.011  0.1591 -0.6184 -0.3047
19039SOL    HW158311   4.059   4.331   4.006 -4.4440 -2.9757 -0.8385
19039SOL    HW258312   3.992   4.437   3.921 -1.6029 -0.1107  0.3047
19040SOL     OW58313   3.925   6.100   0.616 -0.3247  0.7430  0.5316
19040SOL    HW158314   4.010   6.061   0.633  0.2466  0.2854 -2.6657
19040SOL    HW258315   3.862   6.041   0.657  0.7931  0.7818  2.4396
19041SOL     OW58316   2.772   6.672   5.105 -0.2273 -0.0424 -0.5219
19041SOL    HW158317   2.860   6.635   5.104  0.0935  0.7054 -1.4084
19041SOL    HW258318   2.762   6.711   5.018 -1.8032 -0.9535 -0.7776
19042SOL     OW58319   3.065   3.932   8.451  0.0343  0.1041 -0.1576
19042SOL    HW158320   3.058   3.884   8.369  1.9495 -2.1807  0.9026
19042SOL    HW258321   3.131   3.999   8.435  1.0442 -0.8913 -0.2879
19043SOL     OW58322   3.391   5.922   3.419  0.4264 -0.1134  0.6903
19043SOL    HW158323   3.316   5.956   3.370  0.7151 -1.8905 -1.1168
19043SOL    HW258324   3.461   5.916   3.354  2.0991  1.2761  2.2885
19044SOL     OW58325   3.458   3.212   3.572 -0.6772  0.6154 -0.7245
19044SOL    HW158326   3.514   3.263   3.513  1.2729  1.7908  1.8978
19044SOL    HW258327   3.410   3.278   3.622 -0.8721 -0.2528  0.2671
19045SOL     OW58328   3.488   2.673   4.558  0.5477  0.0569  0.0748
19045SOL    HW158329   3.450   2.635   4.637  1.9735  0.1915  0.8453
19045SOL    HW258330   3.500   2.599   4.498  1.3636 -0.3793  0.7699
19046SOL     OW58331   8.197   6.696   1.711 -0.7517 -0.0402  0.1167
19046SOL    HW158332   8.236   6.779   1.739  0.1021 -0.2110 -0.5002
19046SOL    HW258333   8.114   6.721   1.671 -0.3288  0.5733 -0.4034
19047SOL     OW58334   4.584   1.287   2.374 -0.2296  0.0524  0.4227
19047SOL    HW158335   4.518   1.238   2.324 -1.6677  0.2429  2.0169
19047SOL    HW258336   4.614   1.355   2.314 -0.0952 -1.1655 -0.9617
19048SOL     OW58337   5.386   4.632   3.343  0.5194  0.0461  0.4157
19048SOL    HW158338   5.398   4.568   3.273  0.4025 -0.6280  1.0070
19048SOL    HW258339   5.310   4.601   3.392 -0.1603  1.1780  0.1230
19049SOL     OW58340   1.202   8.119   8.243 -0.4051  0.7758 -0.1789
19049SOL    HW158341   1.149   8.176   8.299  0.7076  1.8405 -0.1555
19049SOL    HW258342   1.211   8.037   8.292 -0.4368  1.2741  0.6731
19050SOL     OW58343   6.005   2.823   8.310 -0.1540 -0.4681  0.1201
19050SOL    HW158344   6.065   2.781   8.371  0.2810 -0.4252 -0.2725
19050SOL    HW258345   6.045   2.909   8.294  0.7686 -1.1845 -1.7033
19051SOL     OW58346   7.110   3.149   4.784 -0.1703  0.4657  0.5912
19051SOL    HW158347   7.203   3.163   4.797  0.1258  0.6796 -1.3987
19051SOL    HW258348   7.087   3.080   4.847  1.2103  0.7200  1.4138
19052SOL     OW58349   0.025   3.158   0.078 -0.5547 -0.1851  0.5168
19052SOL    HW158350   0.090   3.216   0.118 -0.9798  0.3571  0.4271
19052SOL    HW258351  -0.035   3.217   0.032 -0.3270 -0.7621 -0.5492
19053SOL     OW58352   1.226   8.355   2.066  0.1197 -0.0225  0.2307
19053SOL    HW158353   1.163   8.299   2.113 -0.6605  0.8772  0.2823
19053SOL    HW258354   1.302   8.298   2.052 -1.3767 -1.7228 -1.4724
19054SOL     OW58355   5.755   1.069   5.545 -0.1038 -0.1700  0.0155
19054SOL    HW158356   5.797   1.012   5.480  0.4604  0.5715 -0.2901
19054SOL    HW258357   5.784   1.033   5.629 -0.5062 -0.8890 -0.1419
19055SOL     OW58358   6.210   5.098   1.846 -0.1205  0.5191  0.4573
19055SOL    HW158359   6.237   5.110   1.937 -0.0221 -0.0607  0.5129
19055SOL    HW258360   6.137   5.159   1.835  0.9920  1.8886  0.3864
19056SOL     OW58361   3.066   2.392   6.276 -0.1664  0.2500 -0.1408
19056SOL    HW158362   3.018   2.317   6.242 -1.3001  0.7620  0.2566
19056SOL    HW258363   3.042   2.464   6.218  1.1334  0.2574 -0.6883
19057SOL     OW58364   3.237   3.402   4.104 -0.6896  0.1538  0.3037
19057SOL    HW158365   3.174   3.470   4.130 -1.1970 -0.4519  0.6980
19057SOL    HW258366   3.183   3.336   4.060 -0.2188 -0.0356  0.0136
19058SOL     OW58367   3.241   1.217   0.221 -0.2171 -0.3353 -0.6368
19058SOL    HW158368   3.248   1.174   0.136  0.9685 -0.1871 -0.6227
19058SOL    HW258369   3.319   1.190   0.269  0.0331  1.0014 -0.2511
19059SOL     OW58370   4.079   7.903   2.411  0.1234 -0.4908 -0.0489
19059SOL    HW158371   4.051   7.864   2.329 -0.3172  0.0186 -0.1499
19059SOL    HW258372   4.145   7.968   2.386 -0.4519  0.0974 -0.0705
19060SOL     OW58373   3.125   0.162   7.473  0.1902 -0.0343  0.7122
19060SOL    HW158374   3.183   0.147   7.399 -0.5708 -0.1928  0.1322
19060SOL    HW258375   3.168   0.120   7.547  1.4052  0.9063  0.5718
19061SOL     OW58376   5.416   8.379   1.401 -0.1488  0.1587 -0.5067
19061SOL    HW158377   5.356   8.365   1.328  0.7279  2.2438 -1.7217
19061SOL    HW258378   5.496   8.333   1.375 -0.5177 -0.8604  0.1357
19062SOL     OW58379   3.799   1.141   5.470  0.0555  0.0064  0.4869
19062SOL    HW158380   3.869   1.147   5.535 -1.0477 -3.4883  2.2520
19062SOL    HW258381   3.720   1.170   5.516 -0.1310  1.5219 -0.7030
19063SOL     OW58382   5.595   5.128   4.056  0.1017  0.7322  0.4993
19063SOL    HW158383   5.685   5.098   4.043  0.5498  1.5639  1.5028
19063SOL    HW258384   5.541   5.064   4.010  1.1565 -0.2558  0.5997
19064SOL     OW58385   5.291   5.024   0.658 -0.9390 -0.2805 -0.6245
19064SOL    HW158386   5.363   5.033   0.721  0.5841  1.8306 -2.5201
19064SOL    HW258387   5.251   4.940   0.680 -0.4930  0.2965  3.1073
19065SOL     OW58388   5.254   3.739   6.796 -0.0069  0.4957  0.2627
19065SOL    HW158389   5.207   3.807   6.748 -0.0637  0.1002 -0.2595
19065SOL    HW258390   5.345   3.768   6.796  0.5793 -0.9477 -2.8276
19066SOL     OW58391   3.618   6.159   7.405 -0.6614  0.1353 -0.0890
19066SOL    HW158392   3.605   6.253   7.393 -0.7747  0.4498  2.0137
19066SOL    HW258393   3.530   6.123   7.407 -0.7458  0.3412  1.2028
19067SOL     OW58394   0.583   4.082   2.543  1.1231  0.0728 -0.5301
19067SOL    HW158395   0.590   4.177   2.552  0.2211  0.0791  0.2709
19067SOL    HW258396   0.613   4.064   2.453 -1.3481  1.4361 -1.7300
19068SOL     OW58397   4.974   5.656   2.043  0.0300  0.1988 -0.0701
19068SOL    HW158398   5.010   5.724   2.101 -2.1323 -0.6049  2.4111
19068SOL    HW258399   4.911   5.609   2.098  0.1211 -2.6861 -2.2154
19069SOL     OW58400   1.814   8.206   5.699  0.1570 -0.2473 -0.2976
19069SOL    HW158401   1.769   8.290   5.696 -0.1759 -0.3954  0.3041
19069SOL    HW258402   1.780   8.163   5.778 -2.1127 -2.2820 -2.1806
19070SOL     OW58403   7.959   3.243   6.753  0.2631  0.0146  0.6126
19070SOL    HW158404   7.929   3.250   6.844  0.2634 -3.2122  1.0030
19070SOL    HW258405   8.053   3.261   6.758  0.2879 -0.2541  1.2992
19071SOL     OW58406   3.258   6.021   0.970  0.1520 -0.3116 -0.1575
19071SOL    HW158407   3.312   6.093   1.002 -0.0843  0.0119 -0.4780
19071SOL    HW258408   3.219   5.983   1.049 -0.9555  0.9031 -0.0893
19072SOL     OW58409   1.179   1.012   3.576  0.2467 -0.5289 -0.8500
19072SOL    HW158410   1.234   1.012   3.498  0.3039 -1.6605 -0.8275
19072SOL    HW258411   1.096   0.973   3.546  0.0517 -0.3917 -0.4912
19073SOL     OW58412   5.346   7.732   4.404 -0.2297  0.4748 -0.1275
19073SOL    HW158413   5.347   7.695   4.492  0.5383  0.8505  0.0266
19073SOL    HW258414   5.303   7.817   4.414  1.1580  1.1614  0.1589
19074SOL     OW58415   1.389   8.573   3.862  0.4705  0.0442  0.3578
19074SOL    HW158416   1.384   8.478   3.852  0.2335 -0.2121  2.4745
19074SOL    HW258417   1.316   8.607   3.812  0.7462 -0.8590 -0.6834
19075SOL     OW58418   1.385   1.359   1.347  0.2999  0.6093  0.2137
19075SOL    HW158419   1.405   1.444   1.309 -0.3106  0.6909  0.0585
19075SOL    HW258420   1.352   1.379   1.435  0.9145  0.4778  0.4774
19076SOL     OW58421   3.101   2.887   6.786 -0.3213 -0.2461  0.7993
19076SOL    HW158422   3.114   2.973   6.746 -2.7905  0.0213  0.4289
19076SOL    HW258423   3.148   2.827   6.728 -1.7964  0.4316 -1.2393
19077SOL     OW58424   3.508   1.744   2.018 -0.1808 -0.3123 -0.1415
19077SOL    HW158425   3.546   1.832   2.016 -0.4625 -0.1879 -2.0387
19077SOL    HW258426   3.560   1.696   2.083  0.4659  1.0316  0.3596
19078SOL     OW58427   7.249   4.736   7.151 -0.6439 -0.4334 -0.1098
19078SOL    HW158428   7.194   4.660   7.131 -1.2838 -0.0139  0.0148
19078SOL    HW258429   7.195   4.811   7.127 -0.5609  0.0212  1.0566
19079SOL     OW58430   4.298   0.509   3.991  0.5326 -0.6775  0.1055
19079SOL    HW158431   4.352   0.447   3.942  1.3071 -1.9279  2.3576
19079SOL    HW258432   4.287   0.468   4.077 -1.5770  0.9182  0.6840
19080SOL     OW58433   6.369   1.434   4.849  0.4174  0.0313  0.0194
19080SOL    HW158434   6.396   1.497   4.916  0.9321 -0.7043  0.5226
19080SOL    HW258435   6.442   1.372   4.844 -0.4288 -0.9946  0.1390
19081SOL     OW58436   3.706   2.099   2.799  0.0117  0.6647 -0.4809
19081SOL    HW158437   3.662   2.063   2.877 -1.0260  1.7299 -0.5336
19081SOL    HW258438   3.799   2.083   2.814 -0.2707 -0.2140  0.4192
19082SOL     OW58439   0.689   3.998   7.245 -0.0872  0.1585  0.4946
19082SOL    HW158440   0.779   4.010   7.277  0.4822 -0.6269 -0.7490
19082SOL    HW258441   0.662   3.914   7.283 -0.3080  0.3815  0.8460
19083SOL     OW58442   3.386   5.395   6.694  0.6972  0.1528  0.3075
19083SOL    HW158443   3.424   5.395   6.606  2.0493  1.8285  0.8286
19083SOL    HW258444   3.351   5.484   6.705  1.8100  0.4383  1.9303
19084SOL     OW58445   3.918   5.893   0.049  0.4806  0.2068  0.3877
19084SOL    HW158446   3.925   5.802   0.020 -1.0117  0.3022 -0.3521
19084SOL    HW258447   3.835   5.924   0.013  1.0996  1.9686  0.3758
19085SOL     OW58448   6.404   5.206   6.205 -0.8283 -0.2141 -0.0922
19085SOL    HW158449   6.358   5.280   6.244 -0.2892  1.0494 -1.7294
19085SOL    HW258450   6.425   5.149   6.279 -1.6614  1.0373  1.1548
19086SOL     OW58451   7.743   3.208   5.261 -0.0948  0.0502  0.3946
19086SOL    HW158452   7.770   3.116   5.263  1.6705  0.5396  1.0213
19086SOL    HW258453   7.713   3.226   5.350 -1.1924 -0.1036  0.0707
19087SOL     OW58454   3.791   4.320   0.388 -0.1959  0.4727  0.5800
19087SOL    HW158455   3.798   4.247   0.450  1.6213 -1.0715 -1.3142
19087SOL    HW258456   3.858   4.383   0.416  1.1065 -0.5450 -0.1517
19088SOL     OW58457   2.960   5.336   6.665  0.0033  0.1765 -0.0321
19088SOL    HW158458   3.008   5.339   6.582  0.5883  0.9321  0.3256
19088SOL    HW258459   3.010   5.391   6.724 -0.9293  0.4164  0.5599
19089SOL     OW58460   6.117   4.346   0.340 -0.4510 -0.2440  0.3773
19089SOL    HW158461   6.135   4.423   0.394 -1.0166 -0.3170  0.6744
19089SOL    HW258462   6.176   4.278   0.373  1.9354  0.7347 -1.5280
19090SOL     OW58463   8.348   7.946   8.364 -0.3232  0.1203  0.0500
19090SOL    HW158464   8.312   7.904   8.287 -1.2686 -0.3535  0.7227
19090SOL    HW258465   8.272   7.985   8.408 -0.2228 -1.6307  1.9690
19091SOL     OW58466   4.273   6.005   2.604 -0.0968  0.2738 -0.2063
19091SOL    HW158467   4.349   6.059   2.581 -0.4559  1.1019  0.4738
19091SOL    HW258468   4.308   5.916   2.610  0.9568  0.7085  0.6308
19092SOL     OW58469   7.966   2.586   3.367  0.3247  0.1554 -0.0799
19092SOL    HW158470   7.887   2.596   3.313  1.1746 -0.3771 -1.4706
19092SOL    HW258471   7.952   2.504   3.415  0.5204 -0.5782 -1.2327
19093SOL     OW58472   2.358   7.516   1.652  0.3381  0.1241 -0.5932
19093SOL    HW158473   2.370   7.424   1.678  1.0094  0.1749 -0.7263
19093SOL    HW258474   2.313   7.510   1.567 -1.1841 -0.0485  0.1775
19094SOL     OW58475   8.111   2.463   2.517 -0.1066 -0.3340 -0.3097
19094SOL    HW158476   8.094   2.373   2.545  0.4718 -0.0535  0.9754
19094SOL    HW258477   8.189   2.489   2.564 -0.0804  0.7479 -0.9242
19095SOL     OW58478   0.490   8.586   1.947  0.2186 -0.2529  0.0302
19095SOL    HW158479   0.445   8.645   1.885  1.8670  0.1989 -0.7875
19095SOL    HW258480   0.563   8.550   1.897 -0.4757 -2.7056  0.6520
19096SOL     OW58481   1.390   1.837   6.783 -0.2363 -0.6373  0.3359
19096SOL    HW158482   1.456   1.780   6.742 -1.9697 -1.8906 -0.8564
19096SOL    HW258483   1.415   1.925   6.757  0.1091 -1.2172 -1.4351
19097SOL     OW58484   1.482   6.954   7.866 -0.2626  0.3047 -0.0607
19097SOL    HW158485   1.433   7.024   7.823  1.1154  0.9456 -0.6691
19097SOL    HW258486   1.503   6.892   7.795  0.7012  0.5876 -0.0432
19098SOL     OW58487   2.855   5.647   5.064 -0.8351 -0.2157  0.0894
19098SOL    HW158488   2.916   5.649   4.990 -1.7178  0.4417 -0.6387
19098SOL    HW258489   2.907   5.675   5.139 -0.0536 -0.3935 -0.3805
19099SOL     OW58490   6.743   1.729   1.553  0.1896  0.3885 -0.6021
19099SOL    HW158491   6.732   1.732   1.458  0.5449  3.3781 -0.6414
19099SOL    HW258492   6.690   1.803   1.586  1.4649  0.5108  1.3339
19100SOL     OW58493   6.499   6.472   7.956  0.8864 -0.2587  0.2176
19100SOL    HW158494   6.478   6.439   7.869 -0.1267 -0.7042  0.6140
19100SOL    HW258495   6.442   6.549   7.966  0.0045 -0.9830  0.9793
19101SOL     OW58496   1.105   5.201   5.742  0.4086 -0.1944  0.2043
19101SOL    HW158497   1.182   5.144   5.753 -0.0476 -0.5296  1.9021
19101SOL    HW258498   1.138   5.275   5.691  1.9672 -0.2008  1.1156
19102SOL     OW58499   1.119   2.742   7.188 -0.0833  0.0605  0.2409
19102SOL    HW158500   1.197   2.693   7.164 -0.8734 -1.3180  0.3922
19102SOL    HW258501   1.064   2.740   7.109 -0.1421  0.6969  0.2553
19103SOL     OW58502   0.372   6.849   5.118 -0.3004  0.7244  0.0141
19103SOL    HW158503   0.294   6.796   5.136 -1.5344  0.3323 -4.9814
19103SOL    HW258504   0.440   6.786   5.097 -0.3289  1.0322 -1.0835
19104SOL     OW58505   0.467   4.753   3.395  0.4285  0.7235 -0.0827
19104SOL    HW158506   0.440   4.749   3.487  0.4227  3.0259  0.0737
19104SOL    HW258507   0.493   4.663   3.374 -2.6909 -0.6254  1.1553
19105SOL     OW58508   5.365   5.804   3.749 -0.2599  0.2361 -0.1483
19105SOL    HW158509   5.419   5.730   3.722  1.9785  2.0355 -0.9635
19105SOL    HW258510   5.311   5.770   3.820  0.0923 -2.3520 -1.0011
19106SOL     OW58511   1.400   1.858   2.226 -0.3803  0.1232 -0.1816
19106SOL    HW158512   1.485   1.854   2.272 -0.1055 -0.8002 -0.7365
19106SOL    HW258513   1.345   1.912   2.282  0.4988  0.5148  0.3275
19107SOL     OW58514   2.697   6.466   4.479  0.6869  0.0690  0.5174
19107SOL    HW158515   2.618   6.496   4.524  0.1286 -0.8964  0.2173
19107SOL    HW258516   2.769   6.488   4.538  0.3455  2.1733  0.2091
19108SOL     OW58517   1.717   1.308   2.414 -0.0678  0.3989 -0.5706
19108SOL    HW158518   1.741   1.215   2.418  0.4655  0.5431  3.1062
19108SOL    HW258519   1.795   1.352   2.382  0.2532 -0.2654 -0.7182
19109SOL     OW58520   2.001   2.130   7.274 -0.0254  0.0255 -1.0303
19109SOL    HW158521   1.979   2.074   7.349 -0.9400 -0.1492 -1.4180
19109SOL    HW258522   1.917   2.145   7.230  0.5377 -0.0628 -2.1599
19110SOL     OW58523   3.669   6.926   5.305  0.0322 -0.6283 -0.2220
19110SOL    HW158524   3.740   6.979   5.339  0.3157 -1.1301 -0.0294
19110SOL    HW258525   3.690   6.915   5.212 -0.5055  0.3564 -0.4783
19111SOL     OW58526   6.319   3.655   2.500 -0.1059 -0.3470  0.1012
19111SOL    HW158527   6.307   3.560   2.495 -2.1297 -0.0653 -2.5933
19111SOL    HW258528   6.297   3.677   2.591 -2.0006 -2.1903  0.1533
19112SOL     OW58529   7.817   5.144   6.399 -0.4569 -0.0713 -0.0896
19112SOL    HW158530   7.813   5.110   6.488 -1.4133 -1.6117 -0.6666
19112SOL    HW258531   7.741   5.202   6.391 -0.1621  0.3566  0.1977
19113SOL     OW58532   1.324   4.999   2.422  0.1383  0.0801 -0.4941
19113SOL    HW158533   1.404   4.962   2.384  0.1592 -0.8837  0.4344
19113SOL    HW258534   1.319   4.960   2.509  0.1266  2.2300  0.5585
19114SOL     OW58535   4.001   8.499   5.501  0.0931  0.4868 -0.1428
19114SOL    HW158536   4.020   8.454   5.584  0.9935 -0.4552 -0.8401
19114SOL    HW258537   4.009   8.431   5.434 -1.2764  1.0881 -0.9600
19115SOL     OW58538   4.916   0.306   3.246  0.8192  0.3438  0.2937
19115SOL    HW158539   4.913   0.325   3.152  0.9070 -0.7288  0.0626
19115SOL    HW258540   4.963   0.381   3.284 -1.1769  1.9445 -0.1887
19116SOL     OW58541   2.507   2.004   2.729 -0.3197  0.5873 -0.4029
19116SOL    HW158542   2.576   1.979   2.791 -1.6373  0.4985  1.1073
19116SOL    HW258543   2.534   2.090   2.697  1.4379 -0.2679 -1.3373
19117SOL     OW58544   2.790   8.083   2.580  0.8675  0.1800 -0.3770
19117SOL    HW158545   2.832   8.113   2.660  0.3880  1.4280 -0.5718
19117SOL    HW258546   2.847   8.014   2.547  2.3541  1.3003 -0.2301
19118SOL     OW58547   8.183   7.005   6.130 -0.1141 -0.0907 -0.0732
19118SOL    HW158548   8.214   6.915   6.142 -1.0365 -0.1188  2.8925
19118SOL    HW258549   8.192   7.021   6.036  2.5734 -2.3372 -0.3399
19119SOL     OW58550   4.970   8.573   4.050 -0.2628  0.0819  0.1650
19119SOL    HW158551   4.966   8.663   4.082 -0.4687  0.0384  0.2597
19119SOL    HW258552   4.889   8.532   4.080  0.6106 -0.6521  1.6755
19120SOL     OW58553   5.009   4.011   1.387 -0.2207  0.1289  0.3468
19120SOL    HW158554   5.076   3.956   1.345 -0.9066 -0.8610  0.5107
19120SOL    HW258555   5.059   4.075   1.438  0.5982 -0.5990  0.4806
19121SOL     OW58556   8.447   2.096   1.497  0.0682 -0.2178 -0.0140
19121SOL    HW158557   8.486   2.166   1.444 -0.0009 -0.5873 -0.5576
19121SOL    HW258558   8.419   2.140   1.577 -0.2368  0.4396 -0.4679
19122SOL     OW58559   3.553   4.511   7.818 -0.1228  0.3016 -0.3266
19122SOL    HW158560   3.501   4.561   7.881  1.6022  1.7608  0.0244
19122SOL    HW258561   3.635   4.559   7.812 -0.5580  0.8386 -4.5158
19123SOL     OW58562   3.297   7.096   7.872 -0.5384  0.1460  0.6290
19123SOL    HW158563   3.251   7.015   7.891 -0.5869  0.4007  1.7043
19123SOL    HW258564   3.292   7.145   7.954 -0.9558  1.4529 -0.1461
19124SOL     OW58565   7.218   6.357   3.457 -0.4135 -0.3993  0.0694
19124SOL    HW158566   7.287   6.389   3.400  1.0686 -3.7927 -0.2876
19124SOL    HW258567   7.137   6.386   3.415  0.7114  1.0641 -1.1913
19125SOL     OW58568   1.699   1.265   6.236  0.3838  0.0663 -0.0824
19125SOL    HW158569   1.731   1.262   6.326  0.4225 -0.8860 -0.1227
19125SOL    HW258570   1.697   1.358   6.214 -1.0392  0.4347  1.4019
19126SOL     OW58571   6.856   6.401   0.568 -0.2365  0.2146  0.1302
19126SOL    HW158572   6.770   6.440   0.584  0.1734  0.6623  1.3609
19126SOL    HW258573   6.854   6.374   0.476 -1.8720 -0.2432  0.2720
19127SOL     OW58574   6.128   6.209   0.920  0.4825 -0.2688 -0.0558
19127SOL    HW158575   6.117   6.301   0.892 -1.3746 -0.4377  0.0190
19127SOL    HW258576   6.133   6.160   0.838  1.7993 -0.0861 -0.0993
19128SOL     OW58577   3.222   6.832   7.985 -0.0271 -0.3760  0.5676
19128SOL    HW158578   3.298   6.777   8.003  0.7051  0.2963 -0.4004
19128SOL    HW258579   3.169   6.825   8.065  0.4230 -1.8386  0.7735
19129SOL     OW58580   5.621   0.793   1.377 -0.1552  0.0652  0.2312
19129SOL    HW158581   5.676   0.807   1.455 -0.8228  2.8133  0.2796
19129SOL    HW258582   5.633   0.872   1.325 -1.9877 -0.4690 -1.0649
19130SOL     OW58583   1.749   6.282   6.538  0.4626 -0.3361 -0.4137
19130SOL    HW158584   1.841   6.296   6.559  0.3119  0.5294 -0.2951
19130SOL    HW258585   1.730   6.344   6.467 -0.7820  1.8085  1.6092
19131SOL     OW58586   1.987   4.890   1.117  0.3823 -0.1319 -0.1350
19131SOL    HW158587   1.998   4.913   1.209  1.0436  1.0258 -0.4825
19131SOL    HW258588   1.895   4.866   1.109 -0.1379  1.5709  0.4586
19132SOL     OW58589   2.384   4.628   0.685 -0.5943  0.4037  0.0249
19132SOL    HW158590   2.437   4.562   0.729 -1.6057 -1.1582 -1.0119
19132SOL    HW258591   2.296   4.591   0.681 -1.0317  1.4729 -1.2763
19133SOL     OW58592   6.434   0.297   7.335 -0.1919  0.5749  0.3633
19133SOL    HW158593   6.490   0.245   7.392 -0.5508  0.5945  0.7349
19133SOL    HW258594   6.416   0.240   7.261 -0.3986  0.2553  0.6616
19134SOL     OW58595   5.883   3.807   6.823 -0.6382  0.3384  0.2101
19134SOL    HW158596   5.898   3.713   6.832 -0.7423  0.3717  0.7250
19134SOL    HW258597   5.827   3.814   6.746 -0.3656  0.0040 -0.0256
19135SOL     OW58598   4.997   1.608   0.543  0.3937  0.0458 -0.3664
19135SOL    HW158599   5.049   1.675   0.586 -1.0730  0.4208  0.8818
19135SOL    HW258600   5.024   1.612   0.451  1.3201  1.3738 -0.0569
19136SOL     OW58601   5.718   4.936   2.858  0.1301  0.0558 -0.8018
19136SOL    HW158602   5.720   4.859   2.915  0.5671 -0.6957 -1.8049
19136SOL    HW258603   5.735   4.902   2.771  1.8596  1.4561 -1.0724
19137SOL     OW58604   2.300   6.567   4.369  0.1388 -0.0497 -0.8069
19137SOL    HW158605   2.367   6.586   4.304 -1.3855  1.1251 -2.1343
19137SOL    HW258606   2.235   6.514   4.323 -1.3824  1.4938 -0.5682
19138SOL     OW58607   5.623   2.469   2.327  0.1385 -0.1313  0.1752
19138SOL    HW158608   5.650   2.561   2.327  1.0204 -0.3761  0.2817
19138SOL    HW258609   5.675   2.429   2.397 -0.6639 -0.5935  0.5134
19139SOL     OW58610   4.443   1.700   7.070 -0.6152 -0.0619  0.1161
19139SOL    HW158611   4.357   1.662   7.086 -0.3286 -0.5938  0.4170
19139SOL    HW258612   4.495   1.675   7.146  0.4430 -1.6352 -1.0589
19140SOL     OW58613   0.364   4.695   4.492 -0.2892  0.1381 -0.1869
19140SOL    HW158614   0.457   4.678   4.478 -0.0080  0.0804  1.4939
19140SOL    HW258615   0.362   4.776   4.543 -0.9846 -1.1012  1.8874
19141SOL     OW58616   2.315   7.161   3.069 -0.3434 -0.1281 -0.1016
19141SOL    HW158617   2.263   7.126   3.141  0.2459 -0.7758  0.0183
19141SOL    HW258618   2.257   7.157   2.993 -1.0738  0.8434  0.3813
19142SOL     OW58619   4.837   7.230   6.937  0.7853  0.9140  0.2259
19142SOL    HW158620   4.789   7.288   6.878  1.0532 -0.0521 -0.9714
19142SOL    HW258621   4.775   7.162   6.961  0.8481  0.9906  0.6187
19143SOL     OW58622   4.420   8.483   6.543  0.0857  0.5120  0.1502
19143SOL    HW158623   4.364   8.557   6.521  0.5704  0.4875 -1.2509
19143SOL    HW258624   4.379   8.408   6.500  0.8439  0.3897 -0.3777
19144SOL     OW58625   1.258   1.015   2.794  0.4883  0.1470  0.5231
19144SOL    HW158626   1.281   1.031   2.702  1.1916  0.1492  0.6981
19144SOL    HW258627   1.190   1.080   2.813 -1.1725 -1.1654 -0.5780
19145SOL     OW58628   6.846   6.387   5.234  0.6348  0.3419 -0.0858
19145SOL    HW158629   6.893   6.319   5.281  1.8016  1.6916  0.7768
19145SOL    HW258630   6.767   6.403   5.286  0.8257  0.2975  0.2183
19146SOL     OW58631   1.002   5.205   2.026 -0.1515  0.1608 -0.2881
19146SOL    HW158632   1.042   5.122   1.997 -1.7151 -0.2162 -1.4790
19146SOL    HW258633   0.909   5.194   2.009 -0.8217  1.0668  2.2749
19147SOL     OW58634   5.557   8.313   4.044  0.2607 -0.3380  0.4949
19147SOL    HW158635   5.473   8.270   4.059  1.1301 -1.9107  1.0283
19147SOL    HW258636   5.544   8.402   4.078 -1.7920  0.1334 -1.3053
19148SOL     OW58637   6.235   5.609   5.189 -0.1954  0.4781  0.2063
19148SOL    HW158638   6.219   5.596   5.096 -0.2589  1.6163  0.0445
19148SOL    HW258639   6.320   5.653   5.194 -1.1232  2.3432  0.5211
19149SOL     OW58640   5.854   8.432   1.597  0.1993  0.2694 -0.1952
19149SOL    HW158641   5.858   8.338   1.580  0.5047  0.2771 -0.1698
19149SOL    HW258642   5.789   8.465   1.535 -2.0304 -0.3874  1.6200
19150SOL     OW58643   3.576   4.399   0.822 -0.3660 -0.0304 -0.7825
19150SOL    HW158644   3.554   4.475   0.768  0.2060  0.6926 -0.0229
19150SOL    HW258645   3.672   4.397   0.823 -0.3494  0.3679  0.7312
19151SOL     OW58646   7.666   7.721   4.585 -0.2585 -0.3899  0.3378
19151SOL    HW158647   7.603   7.783   4.547 -0.1891 -1.4977 -1.7548
19151SOL    HW258648   7.652   7.640   4.536  0.2008 -1.8297  2.4540
19152SOL     OW58649   4.240   6.877   1.321  0.0893 -0.0526  0.0063
19152SOL    HW158650   4.179   6.893   1.249  1.1022  0.5961 -0.7354
19152SOL    HW258651   4.257   6.964   1.357  0.5040 -0.2425  0.2751
19153SOL     OW58652   8.300   7.975   0.719  0.1771  0.0799  0.1414
19153SOL    HW158653   8.231   7.925   0.761 -0.9630  2.8753  1.9514
19153SOL    HW258654   8.381   7.931   0.745 -0.7830 -1.8874 -0.0312
19154SOL     OW58655   7.749   5.000   5.047 -0.6390 -0.1625 -0.1825
19154SOL    HW158656   7.762   4.960   5.133  0.9164  0.5994 -0.0127
19154SOL    HW258657   7.835   4.993   5.005 -0.2544  2.9145 -0.1345
19155SOL     OW58658   6.152   4.032   2.029  0.4803  0.0198  0.0764
19155SOL    HW158659   6.142   4.080   1.947 -0.9702 -1.1905 -0.5024
19155SOL    HW258660   6.077   4.059   2.082  0.6215 -0.2830  0.4349
19156SOL     OW58661   3.020   6.748   8.164 -0.4692 -0.2710 -0.6600
19156SOL    HW158662   3.009   6.807   8.238 -0.4432 -0.4663 -0.4984
19156SOL    HW258663   2.940   6.696   8.163  0.4701 -1.8235  0.6312
19157SOL     OW58664   1.334   8.509   5.369  0.6576 -1.1063 -0.2286
19157SOL    HW158665   1.345   8.604   5.381  0.1295 -1.0527 -0.1308
19157SOL    HW258666   1.313   8.499   5.277 -0.8477 -0.9643  0.0731
19158SOL     OW58667   6.228   3.867   5.158 -0.8689  0.1779 -0.0455
19158SOL    HW158668   6.135   3.877   5.178 -0.5447  1.6187  0.9036
19158SOL    HW258669   6.272   3.885   5.240  0.3493  2.1798 -1.0539
19159SOL     OW58670   2.321   1.009   6.091 -0.0347 -0.0532  0.6155
19159SOL    HW158671   2.243   1.060   6.115 -0.7126  0.0336 -1.5620
19159SOL    HW258672   2.390   1.074   6.078  0.0412 -0.0147  1.1701
19160SOL     OW58673   2.568   3.360   1.461  0.2317 -0.2388  0.1225
19160SOL    HW158674   2.544   3.267   1.460 -1.9800  0.2574 -2.0773
19160SOL    HW258675   2.630   3.370   1.389  0.1057  0.0631  0.0535
19161SOL     OW58676   2.080   0.496   4.354  0.2197 -0.1470  0.3729
19161SOL    HW158677   2.126   0.456   4.428  1.8037  2.7135  1.0831
19161SOL    HW258678   2.012   0.550   4.395  0.8927  1.2057 -0.2129
19162SOL     OW58679   2.238   3.925   1.211 -0.0851 -0.4701  0.3558
19162SOL    HW158680   2.144   3.941   1.222  0.0995 -0.0848  1.5188
19162SOL    HW258681   2.247   3.895   1.121 -1.0682  1.5290 -0.4733
19163SOL     OW58682   0.295   1.796   7.836  0.4789  0.2521  0.5162
19163SOL    HW158683   0.208   1.836   7.838  1.3779  2.2635  1.2940
19163SOL    HW258684   0.301   1.748   7.919 -0.5042 -1.3727 -0.3062
19164SOL     OW58685   0.870   2.844   2.770 -0.0828  0.7514 -0.7043
19164SOL    HW158686   0.866   2.925   2.821  1.7410  0.2949  0.2436
19164SOL    HW258687   0.956   2.848   2.727 -0.6941  0.1042 -2.0238
19165SOL     OW58688   2.586   4.965   8.503  0.5329 -0.3806 -0.5796
19165SOL    HW158689   2.617   4.968   8.413 -0.1890 -0.3922 -0.8402
19165SOL    HW258690   2.496   4.998   8.498  0.1007 -1.4479 -0.0400
19166SOL     OW58691   1.229   3.039   7.607 -0.4663 -0.3949 -0.5272
19166SOL    HW158692   1.140   3.071   7.593  0.0808  1.0940 -0.8467
19166SOL    HW258693   1.219   2.962   7.663 -1.8957  0.1695  0.0329
19167SOL     OW58694   0.915   0.995   2.154  0.2055 -0.5491  0.6909
19167SOL    HW158695   0.886   1.046   2.230 -1.5024 -0.5232  0.0537
19167SOL    HW258696   0.863   0.915   2.157 -0.9874  0.0887 -1.2340
19168SOL     OW58697   6.624   4.966   2.431 -0.1187 -0.2368  0.2855
19168SOL    HW158698   6.535   4.942   2.404 -0.6081  1.5178  0.2301
19168SOL    HW258699   6.615   4.996   2.521  0.6407 -1.1621  0.6832
19169SOL     OW58700   1.778   2.670   0.257 -0.0430 -0.0891  0.3019
19169SOL    HW158701   1.818   2.714   0.182  1.3763 -0.9455  0.5160
19169SOL    HW258702   1.791   2.577   0.240  1.8588 -0.2826  2.3895
19170SOL     OW58703   6.350   4.560   1.112 -0.1822 -0.0963  0.0771
19170SOL    HW158704   6.357   4.653   1.093 -1.2367  0.3434  1.6877
19170SOL    HW258705   6.305   4.524   1.035 -1.0306  0.9744  0.0436
19171SOL     OW58706   7.308   5.690   8.151  0.4991 -0.3709  0.4565
19171SOL    HW158707   7.370   5.754   8.116  0.2609 -0.9313 -1.0376
19171SOL    HW258708   7.292   5.720   8.241 -0.9164  2.6923 -0.6781
19172SOL     OW58709   5.627   6.389   7.866  0.2080 -0.1006 -0.4835
19172SOL    HW158710   5.558   6.373   7.802  0.7720 -1.3687 -0.8147
19172SOL    HW258711   5.685   6.453   7.824  0.6718 -1.0521 -1.3420
19173SOL     OW58712   7.564   7.269   7.714  0.0866  0.2795 -0.4061
19173SOL    HW158713   7.651   7.232   7.731 -0.0057  0.3804  0.3543
19173SOL    HW258714   7.547   7.324   7.791 -0.7129  0.1354 -0.4716
19174SOL     OW58715   0.927   1.022   7.452  0.7605 -0.5352  0.6161
19174SOL    HW158716   0.942   0.970   7.531  1.3414 -0.4723  0.5538
19174SOL    HW258717   0.844   1.067   7.468  0.8493 -0.5598  1.1733
19175SOL     OW58718   1.298   2.632   1.396 -0.1981  0.4678  0.1762
19175SOL    HW158719   1.318   2.543   1.368 -0.0348  0.1862  1.1778
19175SOL    HW258720   1.288   2.681   1.314 -0.5707 -0.5258 -0.3893
19176SOL     OW58721   0.773   2.459   6.793 -0.2201  0.3763  0.0639
19176SOL    HW158722   0.712   2.426   6.859 -1.4679  2.1958 -0.1282
19176SOL    HW258723   0.755   2.406   6.715 -1.4008  0.7341  0.0833
19177SOL     OW58724   7.988   1.530   5.351  0.2727  0.0788  0.3443
19177SOL    HW158725   7.922   1.523   5.282 -0.9922 -0.0576  1.5222
19177SOL    HW258726   7.973   1.454   5.406 -0.6289  1.5949  2.3232
19178SOL     OW58727   6.705   2.663   0.365 -0.1584  0.0803  0.3707
19178SOL    HW158728   6.691   2.570   0.347  3.3649 -0.5952  0.3229
19178SOL    HW258729   6.724   2.666   0.459  1.1547  0.4475  0.1208
19179SOL     OW58730   1.497   4.895   7.316 -0.3616  0.2387  0.7666
19179SOL    HW158731   1.548   4.895   7.235 -0.5295  0.2381  0.6586
19179SOL    HW258732   1.515   4.809   7.355  1.5111  1.0845  1.8896
19180SOL     OW58733   1.140   4.989   1.947  0.0645  0.0058  0.4832
19180SOL    HW158734   1.221   5.037   1.927 -0.6200  0.7578 -0.5805
19180SOL    HW258735   1.170   4.901   1.967  1.0765 -0.1017 -1.2429
19181SOL     OW58736   2.918   8.323   4.663 -0.2103  0.2707 -0.2881
19181SOL    HW158737   2.986   8.379   4.626  1.1117  0.3469  2.0390
19181SOL    HW258738   2.966   8.247   4.698 -1.2970  0.2947  1.3485
19182SOL     OW58739   1.944   5.100   0.306 -0.2256 -0.1073  0.1378
19182SOL    HW158740   1.859   5.145   0.310 -0.2888 -0.2546  0.4446
19182SOL    HW258741   1.967   5.102   0.213 -0.3673  0.3035  0.1057
19183SOL     OW58742   1.989   2.066   0.245  0.7178  0.0674  0.0501
19183SOL    HW158743   1.928   2.065   0.171  0.0049  1.3467  0.5983
19183SOL    HW258744   2.068   2.107   0.211  0.3211  0.8339  0.0407
19184SOL     OW58745   8.197   3.763   0.638  0.0043 -0.0468  0.3048
19184SOL    HW158746   8.124   3.812   0.600 -0.8270  0.5173  2.4834
19184SOL    HW258747   8.273   3.790   0.587 -0.8476  1.6106 -0.1435
19185SOL     OW58748   0.367   7.427   1.851 -0.0484  0.1652  0.2723
19185SOL    HW158749   0.351   7.396   1.940 -0.7444  0.4801  0.2667
19185SOL    HW258750   0.363   7.347   1.797  0.9388 -0.1035  0.5795
19186SOL     OW58751   4.909   6.992   5.022  0.7023  0.5226  0.5565
19186SOL    HW158752   4.955   6.919   4.980 -1.6613  0.1518 -1.6727
19186SOL    HW258753   4.855   6.951   5.089  1.0080  0.5051  0.7919
19187SOL     OW58754   0.198   8.050   3.011  0.4369  0.7429  0.2046
19187SOL    HW158755   0.200   7.997   2.931  2.2988 -0.3023  0.8852
19187SOL    HW258756   0.113   8.031   3.050 -0.9599  2.0413 -1.9603
19188SOL     OW58757   4.850   6.825   7.942 -0.3923  0.1612  0.0526
19188SOL    HW158758   4.780   6.825   7.876  0.9090  1.1503 -1.3964
19188SOL    HW258759   4.921   6.776   7.902  0.1676  0.1628  1.0214
19189SOL     OW58760   5.455   3.080   2.140  0.5103 -0.1262 -0.2545
19189SOL    HW158761   5.455   3.080   2.045  1.9629  2.1425 -0.3109
19189SOL    HW258762   5.375   3.032   2.164 -0.8249  0.7667 -2.6160
19190SOL     OW58763   7.306   7.130   2.648  0.4139  0.4481 -0.1123
19190SOL    HW158764   7.292   7.098   2.559 -2.5079  0.5588  0.2133
19190SOL    HW258765   7.302   7.225   2.640 -0.3428  0.4464  0.1832
19191SOL     OW58766   6.343   4.422   2.474  1.0122  0.0363 -0.1458
19191SOL    HW158767   6.363   4.329   2.486 -0.2241 -0.3528 -0.9069
19191SOL    HW258768   6.300   4.426   2.388 -1.4731  0.8878  1.0467
19192SOL     OW58769   5.915   2.825   7.202 -0.1643  0.0065  0.3875
19192SOL    HW158770   5.960   2.867   7.276  0.5258  0.5834 -0.3446
19192SOL    HW258771   5.832   2.873   7.194 -2.0547 -2.4769  3.1566
19193SOL     OW58772   0.828   2.467   6.435  0.0328 -0.3488 -0.0968
19193SOL    HW158773   0.788   2.388   6.471  1.5668 -0.7171  0.8511
19193SOL    HW258774   0.893   2.434   6.373 -0.1780  0.2212 -0.6346
19194SOL     OW58775   7.093   1.463   2.431  0.6832 -0.5043 -0.2670
19194SOL    HW158776   7.024   1.529   2.433  1.2398  0.1509 -1.4529
19194SOL    HW258777   7.175   1.513   2.440  1.0524 -1.1952  0.3981
19195SOL     OW58778   8.062   7.827   2.746  0.4783 -0.4208 -0.3494
19195SOL    HW158779   8.093   7.828   2.655  0.0516  1.0310 -0.5009
19195SOL    HW258780   8.042   7.735   2.763  0.0676 -0.6485 -1.9014
19196SOL     OW58781   2.157   4.767   2.171  0.6925  0.0296 -0.1031
19196SOL    HW158782   2.141   4.851   2.128 -2.3515  0.6669  1.9722
19196SOL    HW258783   2.162   4.704   2.099 -2.3813  1.2620 -1.5861
19197SOL     OW58784   1.579   1.488   6.725 -0.1387 -0.4377 -0.2109
19197SOL    HW158785   1.564   1.568   6.674  0.0558 -0.9295 -1.0642
19197SOL    HW258786   1.674   1.475   6.722 -0.1947 -0.8464 -0.3106
19198SOL     OW58787   5.312   6.416   0.986 -0.0909 -0.2767 -0.1696
19198SOL    HW158788   5.372   6.481   1.023  1.0960 -1.4468  0.0419
19198SOL    HW258789   5.369   6.345   0.957 -1.1348 -0.1587 -2.7269
19199SOL     OW58790   3.165   5.198   3.062 -0.3047 -0.3936 -0.0279
19199SOL    HW158791   3.141   5.114   3.101  0.6470 -1.3730 -1.4267
19199SOL    HW258792   3.097   5.259   3.091 -1.6458 -1.9006  0.1355
19200SOL     OW58793   4.334   2.041   6.404  0.1642  0.7338 -0.1579
19200SOL    HW158794   4.276   2.009   6.473 -0.0831  0.5996 -0.4242
19200SOL    HW258795   4.283   2.110   6.360 -1.0293 -1.3791 -2.3132
19201SOL     OW58796   0.318   4.015   5.017  0.0002  0.1566 -0.3929
19201SOL    HW158797   0.390   4.053   4.966 -0.0759  0.8093 -0.0278
19201SOL    HW258798   0.361   3.953   5.075  0.3540  0.9241  0.1918
19202SOL     OW58799   6.606   0.891   4.289  0.8679 -0.2993  0.0383
19202SOL    HW158800   6.639   0.971   4.328 -0.1502  0.3711 -0.4468
19202SOL    HW258801   6.677   0.862   4.231  1.6722 -0.3547  1.0343
19203SOL     OW58802   6.202   0.562   7.811  0.7844 -0.2237  0.0770
19203SOL    HW158803   6.213   0.518   7.727  3.0760 -0.0410  0.2237
19203SOL    HW258804   6.233   0.498   7.876  3.4676  1.2062  0.3479
19204SOL     OW58805   7.240   7.977   6.678 -0.1990  0.1349 -0.1045
19204SOL    HW158806   7.204   7.895   6.643  1.2166 -0.5061 -0.1422
19204SOL    HW258807   7.163   8.030   6.698 -1.2312 -1.5941  0.8759
19205SOL     OW58808   5.214   6.283   8.557  0.3918 -0.0597 -0.2603
19205SOL    HW158809   5.188   6.339   8.631  0.5351 -0.9519  0.4822
19205SOL    HW258810   5.239   6.345   8.488 -2.6984  0.8834 -0.7053
19206SOL     OW58811   2.497   3.287   1.960 -0.5346  0.0905  0.1806
19206SOL    HW158812   2.509   3.333   2.043  0.5211  1.1891 -0.5384
19206SOL    HW258813   2.412   3.317   1.928 -2.0811 -2.0963  1.8695
19207SOL     OW58814   2.099   7.040   7.427 -0.2250 -0.7654  0.1796
19207SOL    HW158815   2.172   6.983   7.451 -2.3758 -3.8276  0.1230
19207SOL    HW258816   2.103   7.112   7.489  3.2263 -0.3218 -0.3303
19208SOL     OW58817   1.227   6.618   7.866 -0.2326 -0.5258 -0.1536
19208SOL    HW158818   1.181   6.545   7.908 -0.9866  0.4490  0.7846
19208SOL    HW258819   1.287   6.577   7.805  0.1361 -1.9751  1.1310
19209SOL     OW58820   8.099   5.620   7.226  0.3052  0.0511  0.1781
19209SOL    HW158821   8.031   5.552   7.224 -0.2443  0.6000 -0.7513
19209SOL    HW258822   8.162   5.593   7.160 -1.1411  1.6053 -1.9958
19210SOL     OW58823   5.836   6.284   7.497  0.0869  0.7148  0.3505
19210SOL    HW158824   5.862   6.224   7.567 -0.5266 -0.7547 -0.6178
19210SOL    HW258825   5.786   6.353   7.541 -1.6866 -1.0268  1.2275
19211SOL     OW58826   6.941   4.472   7.973  0.0095 -0.5923 -0.0666
19211SOL    HW158827   6.858   4.459   7.927 -0.4963 -0.9685  0.9339
19211SOL    HW258828   6.921   4.532   8.044  0.8401  0.1802 -0.4602
19212SOL     OW58829   4.585   6.260   5.154 -0.0130  0.0201 -0.1945
19212SOL    HW158830   4.619   6.208   5.227  0.8866 -1.1467 -1.3817
19212SOL    HW258831   4.618   6.348   5.169  0.8037 -0.3746  0.4018
19213SOL     OW58832   4.348   6.764   4.764 -0.1992 -0.1024  0.0303
19213SOL    HW158833   4.364   6.695   4.699 -0.3704 -0.3568  0.2550
19213SOL    HW258834   4.434   6.786   4.798 -0.3419 -2.0601  1.8534
19214SOL     OW58835   5.256   6.049   3.137  0.1797 -0.0852  0.0998
19214SOL    HW158836   5.258   6.031   3.231  1.4884 -2.2019 -0.2668
19214SOL    HW258837   5.305   5.977   3.098  0.0969  1.0144 -2.1859
19215SOL     OW58838   6.398   7.964   2.608  0.3928 -0.2677 -0.1966
19215SOL    HW158839   6.383   8.058   2.597  0.8357 -0.1260  0.3754
19215SOL    HW258840   6.491   7.957   2.627  0.2736 -0.7855  0.2076
19216SOL     OW58841   5.859   7.371   1.751  0.1378  0.4337 -0.0977
19216SOL    HW158842   5.822   7.391   1.837 -0.1514 -1.5157  0.2721
19216SOL    HW258843   5.786   7.386   1.690  0.3489  1.8350 -0.0386
19217SOL     OW58844   3.474   0.762   6.942  0.0552 -0.4110  0.2192
19217SOL    HW158845   3.544   0.826   6.925 -0.1876 -0.0188  0.6778
19217SOL    HW258846   3.465   0.761   7.037 -0.5058 -0.5200  0.1667
19218SOL     OW58847   4.919   5.240   2.093 -0.2156  0.1920  0.2358
19218SOL    HW158848   4.977   5.315   2.078 -1.5749  1.2222 -0.0151
19218SOL    HW258849   4.895   5.246   2.186  0.4955 -0.5751  0.4928
19219SOL     OW58850   7.546   6.209   6.028  0.4448 -0.0292 -0.3323
19219SOL    HW158851   7.550   6.160   6.110 -3.0716  1.5503  0.9727
19219SOL    HW258852   7.617   6.272   6.035  1.7299 -1.4677  0.3243
19220SOL     OW58853   4.953   7.374   4.803 -0.3621 -0.0200  0.1301
19220SOL    HW158854   4.963   7.411   4.715  0.2039  0.9597  0.5919
19220SOL    HW258855   4.885   7.427   4.844 -0.9969 -0.8100  0.1130
19221SOL     OW58856   6.719   0.975   5.682 -0.3048  0.5255 -0.5769
19221SOL    HW158857   6.657   0.910   5.715 -1.4444  1.1094 -1.4623
19221SOL    HW258858   6.748   1.023   5.759 -0.7230  0.0336 -0.1109
19222SOL     OW58859   0.862   7.784   1.707  0.1675 -0.1832 -0.9261
19222SOL    HW158860   0.772   7.749   1.706  0.2805 -0.9532  2.7216
19222SOL    HW258861   0.856   7.862   1.761  1.8649 -0.9082  0.3726
19223SOL     OW58862   4.087   6.225   1.741  0.5681  0.0570  0.3721
19223SOL    HW158863   4.034   6.194   1.667  0.7989 -0.7356  0.5331
19223SOL    HW258864   4.077   6.320   1.739 -3.3844 -0.1413  2.2843
19224SOL     OW58865   0.825   0.848   6.668 -0.1295  0.5459  0.1635
19224SOL    HW158866   0.759   0.798   6.716 -0.4945  0.5943 -0.2880
19224SOL    HW258867   0.808   0.829   6.576  0.5133  0.5251  0.0438
19225SOL     OW58868   1.934   2.686   7.850  0.0573  0.2835 -0.7536
19225SOL    HW158869   1.873   2.650   7.915  0.0125  0.3648 -0.7512
19225SOL    HW258870   1.904   2.649   7.767 -0.1819  0.5704 -0.7932
19226SOL     OW58871   0.213   7.612   8.400 -0.0821  0.0539  0.4925
19226SOL    HW158872   0.308   7.608   8.412 -0.0575  1.5885  0.9446
19226SOL    HW258873   0.198   7.691   8.348 -1.0744 -0.5700 -0.2173
19227SOL     OW58874   0.750   8.372   3.511 -0.4045 -0.3052  0.1842
19227SOL    HW158875   0.755   8.390   3.605  1.6284  0.6241 -0.0463
19227SOL    HW258876   0.667   8.327   3.499 -1.3248  0.7299  2.2383
19228SOL     OW58877   0.682   3.432   0.256  0.2637  0.0748 -0.3250
19228SOL    HW158878   0.654   3.353   0.302  2.5733  0.3615  1.7862
19228SOL    HW258879   0.669   3.503   0.318  0.7479  0.9477 -1.1868
19229SOL     OW58880   4.811   2.537   8.085 -0.2320 -0.6054 -0.0371
19229SOL    HW158881   4.769   2.457   8.117  1.2565 -0.3468  2.9552
19229SOL    HW258882   4.896   2.507   8.052  0.0773 -0.3641  0.5246
19230SOL     OW58883   5.486   7.225   7.959  0.1995 -0.1081  0.4311
19230SOL    HW158884   5.533   7.244   8.041  1.0132 -0.5505  0.0803
19230SOL    HW258885   5.529   7.281   7.894 -0.6758  0.4998  0.3693
19231SOL     OW58886   3.819   8.419   7.044 -0.3058  0.7042 -0.2749
19231SOL    HW158887   3.865   8.395   7.124 -1.8389  1.3101  0.8402
19231SOL    HW258888   3.740   8.364   7.045 -0.4684  0.9033 -1.2341
19232SOL     OW58889   1.696   6.264   2.221  0.0261 -0.1374  0.5199
19232SOL    HW158890   1.654   6.190   2.177  1.8331 -2.4057  2.3798
19232SOL    HW258891   1.790   6.250   2.208  0.4420  1.5612  1.3619
19233SOL     OW58892   6.381   3.404   6.198 -0.1504 -0.6398  0.6330
19233SOL    HW158893   6.449   3.421   6.263  1.3412  1.2826 -1.2749
19233SOL    HW258894   6.426   3.358   6.128 -0.1897  2.2837 -1.5167
19234SOL     OW58895   6.403   1.378   0.729  0.5510 -0.1219  0.1328
19234SOL    HW158896   6.463   1.313   0.693  1.3538  1.1860 -0.9941
19234SOL    HW258897   6.365   1.421   0.653 -0.8791 -0.0602  0.8439
19235SOL     OW58898   2.806   7.128   6.062  0.5085 -0.0897  0.4154
19235SOL    HW158899   2.877   7.152   6.122 -0.3019  0.7475  1.0582
19235SOL    HW258900   2.816   7.033   6.050  1.9926  0.0660  0.1365
19236SOL     OW58901   5.097   1.669   5.098 -0.1887 -0.4461 -0.2931
19236SOL    HW158902   5.085   1.631   5.185 -1.3366 -1.8056 -0.9868
19236SOL    HW258903   5.145   1.602   5.049  0.3650  0.2615 -0.7361
19237SOL     OW58904   2.649   3.524   3.330 -0.3258 -0.1840  0.1627
19237SOL    HW158905   2.594   3.484   3.262 -1.5568 -0.2256  1.1596
19237SOL    HW258906   2.681   3.605   3.289  0.3532 -1.0227 -1.0587
19238SOL     OW58907   0.098   2.009   4.449  0.5576 -0.4876  0.1830
19238SOL    HW158908   0.009   1.984   4.473  0.7580 -0.3807  1.0962
19238SOL    HW258909   0.087   2.079   4.385 -0.0091 -0.9647 -0.2497
19239SOL     OW58910   4.762   7.742   5.258 -0.2823 -0.2812  0.0995
19239SOL    HW158911   4.741   7.661   5.213  1.4211  0.1541 -1.6107
19239SOL    HW258912   4.759   7.809   5.190 -0.8145  0.9743  1.3056
19240SOL     OW58913   3.572   1.336   3.275 -0.0769  0.1889 -0.4799
19240SOL    HW158914   3.650   1.316   3.326 -0.5423  2.2639  1.1424
19240SOL    HW258915   3.567   1.265   3.211  1.9770 -1.0939  0.6802
19241SOL     OW58916   4.087   4.477   1.013  0.6683  0.4581  0.1356
19241SOL    HW158917   4.103   4.440   1.100  2.0142  0.5443 -0.0508
19241SOL    HW258918   4.057   4.566   1.030  1.1494  0.5552  0.5136
19242SOL     OW58919   2.088   1.049   0.707  0.2227  0.1075  0.2182
19242SOL    HW158920   2.017   0.990   0.733 -0.0163 -0.2260 -1.0912
19242SOL    HW258921   2.057   1.136   0.732 -1.3746  0.1648 -1.6375
19243SOL     OW58922   1.078   5.511   7.186  0.0593  0.5000 -0.0757
19243SOL    HW158923   1.091   5.592   7.237  1.7383  0.2584 -0.0799
19243SOL    HW258924   0.987   5.487   7.204 -0.0831  1.6844  0.9704
19244SOL     OW58925   5.282   8.231   4.227  0.1112  0.2152  0.0869
19244SOL    HW158926   5.279   8.242   4.132 -0.3963  0.2112  0.1016
19244SOL    HW258927   5.190   8.226   4.254  0.1720  2.1220  0.7982
19245SOL     OW58928   2.699   4.302   7.011  0.6116 -0.3703 -0.5504
19245SOL    HW158929   2.674   4.394   7.008  1.5605 -0.1038 -1.0498
19245SOL    HW258930   2.746   4.292   7.094 -1.6308 -1.0343  0.7206
19246SOL     OW58931   4.730   5.114   1.905  0.0531  0.4492 -0.0586
19246SOL    HW158932   4.760   5.174   1.837 -3.3363  2.9722  0.4544
19246SOL    HW258933   4.788   5.131   1.980  1.1059  0.7505 -0.9158
19247SOL     OW58934   4.673   2.843   3.187 -0.1226  0.1261 -0.0081
19247SOL    HW158935   4.589   2.800   3.204  0.6050 -1.0470  0.8052
19247SOL    HW258936   4.693   2.889   3.269  0.9682 -1.2721  0.5360
19248SOL     OW58937   5.953   4.047   2.849 -0.3296 -0.2905 -0.5163
19248SOL    HW158938   5.976   4.122   2.904 -0.9954 -0.5654  0.1507
19248SOL    HW258939   5.966   3.971   2.906 -1.6888 -0.5323 -0.4935
19249SOL     OW58940   0.811   1.873   2.639 -0.4380  0.4711  0.4918
19249SOL    HW158941   0.865   1.942   2.678 -0.2708  0.6059  0.0285
19249SOL    HW258942   0.724   1.912   2.630 -0.0146  1.1226 -1.0761
19250SOL     OW58943   4.287   1.619   5.009 -0.0254 -0.0699 -0.3836
19250SOL    HW158944   4.330   1.680   4.949 -1.4642 -0.1294 -1.5285
19250SOL    HW258945   4.207   1.665   5.036  0.3166 -0.2874  1.0475
19251SOL     OW58946   2.317   7.472   0.659  0.3435 -0.0545  0.0403
19251SOL    HW158947   2.242   7.481   0.718  0.1457 -2.5970  0.3049
19251SOL    HW258948   2.392   7.459   0.717  0.8612  1.4302 -0.2489
19252SOL     OW58949   8.083   4.453   2.397  0.1353  0.2535  0.2738
19252SOL    HW158950   8.155   4.440   2.459 -0.2668  0.1342  0.7189
19252SOL    HW258951   8.126   4.488   2.318  0.8709 -1.1566  0.0126
19253SOL     OW58952   0.342   0.604   2.332  0.0241 -0.0465  0.1179
19253SOL    HW158953   0.388   0.521   2.319  1.2948  0.3528  1.6563
19253SOL    HW258954   0.289   0.591   2.410 -0.1704  0.4296  0.0716
19254SOL     OW58955   1.731   4.088   1.592  0.6395  0.3142  0.3239
19254SOL    HW158956   1.782   4.029   1.647 -2.1157 -1.9289  0.6898
19254SOL    HW258957   1.796   4.135   1.540  3.0932 -1.2114  1.8279
19255SOL     OW58958   2.631   3.752   4.128  0.4434 -0.1688 -0.2481
19255SOL    HW158959   2.610   3.729   4.219  0.7595  1.1482  0.1884
19255SOL    HW258960   2.655   3.669   4.087 -1.5522 -1.0887  0.3408
19256SOL     OW58961   3.739   7.401   8.173  0.1094 -0.3788  0.0669
19256SOL    HW158962   3.781   7.371   8.093  1.1182 -0.8578  0.7546
19256SOL    HW258963   3.678   7.331   8.196 -1.6375  0.6079 -1.2898
19257SOL     OW58964   2.445   1.488   0.193 -0.0730 -0.2002 -0.8545
19257SOL    HW158965   2.459   1.406   0.240 -0.5338  0.6926  0.9370
19257SOL    HW258966   2.509   1.487   0.122  2.2994 -0.6159  1.1510
19258SOL     OW58967   3.991   5.859   7.374 -0.0954  0.5696  0.7177
19258SOL    HW158968   3.959   5.800   7.306  0.7255  0.4175  0.4565
19258SOL    HW258969   4.026   5.801   7.442 -1.5660  0.6916  1.6305
19259SOL     OW58970   1.086   1.555   2.959  0.3013  0.1389 -0.0528
19259SOL    HW158971   1.145   1.480   2.973  1.6717  1.5211  2.1508
19259SOL    HW258972   1.023   1.550   3.031 -0.3105  0.4703 -0.5571
19260SOL     OW58973   7.729   3.603   4.207  0.3118 -0.1204  0.1783
19260SOL    HW158974   7.708   3.660   4.281  0.6644 -0.8483  0.8446
19260SOL    HW258975   7.774   3.660   4.145 -1.5448  0.9474 -0.2957
19261SOL     OW58976   2.897   6.271   3.364 -0.1192  0.4839  0.0211
19261SOL    HW158977   2.889   6.199   3.302 -1.9752  0.2814  0.4452
19261SOL    HW258978   2.910   6.228   3.449  0.7255  0.7157  0.0159
19262SOL     OW58979   7.649   5.979   2.650  0.2348 -0.2150 -0.4441
19262SOL    HW158980   7.580   5.978   2.584 -1.2716 -0.2172  1.0676
19262SOL    HW258981   7.694   5.895   2.640  0.6739  0.1912 -2.0848
19263SOL     OW58982   6.414   6.552   8.349 -0.5175  0.6375 -0.1922
19263SOL    HW158983   6.436   6.546   8.442  1.5896 -0.9504 -0.7220
19263SOL    HW258984   6.460   6.630   8.318 -0.1849  0.4673 -0.1354
19264SOL     OW58985   2.063   8.349   7.509  0.0817 -0.2311  0.3190
19264SOL    HW158986   2.010   8.424   7.480  0.9270 -0.1794 -1.2148
19264SOL    HW258987   2.050   8.283   7.441 -0.6455 -1.5149  1.6517
19265SOL     OW58988   1.505   5.835   5.987  0.2312  0.0633 -0.0126
19265SOL    HW158989   1.452   5.762   6.018  0.8823 -0.7901 -0.8548
19265SOL    HW258990   1.490   5.904   6.051  1.9532 -1.7893  2.6253
19266SOL     OW58991   5.480   4.869   4.089  0.6166  0.4024  0.3487
19266SOL    HW158992   5.488   4.922   4.168 -1.1038 -1.2217  1.7248
19266SOL    HW258993   5.477   4.779   4.121 -0.9944 -0.2659 -1.4663
19267SOL     OW58994   5.054   6.528   0.831  0.2168  0.0040 -0.6870
19267SOL    HW158995   5.069   6.453   0.774 -0.8688 -0.2651 -0.6407
19267SOL    HW258996   5.124   6.524   0.895  0.4460 -0.6933 -0.9748
19268SOL     OW58997   0.318   7.492   4.696  0.1337  0.7548 -0.0196
19268SOL    HW158998   0.344   7.562   4.635  1.4435 -0.7062 -1.2161
19268SOL    HW258999   0.392   7.486   4.757  0.5068 -0.2683 -0.5609
19269SOL     OW59000   6.387   1.951   0.049 -0.1380  0.3016 -0.1739
19269SOL    HW159001   6.395   1.996  -0.035  1.9141  1.4512  0.5503
19269SOL    HW259002   6.459   1.887   0.048  0.9483  1.4175  1.2701
19270SOL     OW59003   0.691   6.298   1.069 -0.6824 -0.5764 -0.2029
19270SOL    HW159004   0.642   6.248   1.134 -1.6216  0.7951  0.2036
19270SOL    HW259005   0.729   6.371   1.117 -0.8751  0.1165 -1.0580
19271SOL     OW59006   1.129   6.940   2.313  0.2450 -0.1441  0.1446
19271SOL    HW159007   1.160   6.929   2.223 -0.9656  1.4462 -0.5160
19271SOL    HW259008   1.084   7.024   2.313  1.1973  0.4442  2.5520
19272SOL     OW59009   3.768   1.119   4.369 -0.5889 -0.0401  0.3004
19272SOL    HW159010   3.746   1.027   4.364  0.3693 -0.2978  0.4582
19272SOL    HW259011   3.849   1.127   4.319 -0.6256  0.6992  0.3463
19273SOL     OW59012   2.340   7.759   6.708  0.3951 -0.2714 -0.0481
19273SOL    HW159013   2.416   7.708   6.680  0.8889  0.8363 -0.7778
19273SOL    HW259014   2.295   7.781   6.627  0.1176  0.3378  0.2687
19274SOL     OW59015   4.136   1.742   1.532  0.1092 -0.0323  0.0658
19274SOL    HW159016   4.086   1.679   1.584 -0.9217  0.0003 -0.8676
19274SOL    HW259017   4.217   1.695   1.509 -0.1618 -0.6249  0.3010
19275SOL     OW59018   3.961   1.263   8.400 -0.2717 -0.4146 -0.5737
19275SOL    HW159019   3.926   1.190   8.349 -1.1083 -0.7743  0.4712
19275SOL    HW259020   3.888   1.290   8.457  0.3884  0.4683 -0.1225
19276SOL     OW59021   5.883   4.888   5.346  0.2909  0.2479 -0.0445
19276SOL    HW159022   5.833   4.968   5.357 -1.2156 -0.6816  0.1601
19276SOL    HW259023   5.881   4.847   5.433  0.0492 -0.5561 -0.4216
19277SOL     OW59024   4.850   7.286   2.685  0.5579 -0.5173  0.0228
19277SOL    HW159025   4.835   7.226   2.758 -0.4942 -0.1199  0.1543
19277SOL    HW259026   4.762   7.315   2.660  0.6365 -2.3583 -2.8768
19278SOL     OW59027   8.054   1.950   4.660  0.2359  0.0689 -0.4471
19278SOL    HW159028   8.058   2.045   4.664  1.4099  0.0904 -1.4276
19278SOL    HW259029   8.117   1.920   4.726 -0.0319 -0.0191 -0.2324
19279SOL     OW59030   1.796   5.665   8.572 -0.0511 -0.6149 -0.1363
19279SOL    HW159031   1.884   5.629   8.560  0.7982  0.8831  1.2798
19279SOL    HW259032   1.786   5.677   8.666 -2.6697 -2.8024 -0.0017
19280SOL     OW59033   8.595   6.510   1.545 -0.2681 -0.6160  0.4707
19280SOL    HW159034   8.589   6.564   1.466  0.6511  0.6618  1.2319
19280SOL    HW259035   8.541   6.556   1.609 -0.8588 -1.5448  0.6614
19281SOL     OW59036   6.044   3.575   6.881  0.0377 -0.2875 -0.4060
19281SOL    HW159037   6.135   3.545   6.889 -0.4050 -1.5312  0.2818
19281SOL    HW259038   6.006   3.559   6.967 -1.6038 -2.5667 -1.4295
19282SOL     OW59039   0.290   5.085   6.151  0.1851 -0.6376 -0.0966
19282SOL    HW159040   0.226   5.109   6.218 -0.4266 -0.1850 -0.8186
19282SOL    HW259041   0.290   5.159   6.090  0.5598 -1.1321 -0.7150
19283SOL     OW59042   8.407   5.544   8.454 -0.1382 -0.1192  0.4193
19283SOL    HW159043   8.459   5.471   8.486 -1.0801 -1.0480 -0.1108
19283SOL    HW259044   8.470   5.601   8.410  0.2726 -2.0011 -1.6361
19284SOL     OW59045   4.568   8.203   3.766 -0.2916  0.4727  0.6212
19284SOL    HW159046   4.549   8.204   3.672 -1.6319 -1.8922  0.7771
19284SOL    HW259047   4.483   8.186   3.807  0.4963  0.0516  2.1640
19285SOL     OW59048   8.212   8.568   8.030  0.4231  0.0370  0.0486
19285SOL    HW159049   8.207   8.644   7.971  0.5925  0.3363  0.4133
19285SOL    HW259050   8.154   8.591   8.103  0.3854 -0.2380  0.1048
19286SOL     OW59051   0.880   1.676   5.690 -0.0752  0.0066 -0.6501
19286SOL    HW159052   0.878   1.660   5.784  0.0420 -0.7887 -0.7727
19286SOL    HW259053   0.837   1.760   5.679  1.0742  0.7407  0.2378
19287SOL     OW59054   0.369   6.480   2.032  0.3310 -0.5707 -0.6661
19287SOL    HW159055   0.413   6.537   2.094  0.6956 -1.0372 -0.4941
19287SOL    HW259056   0.284   6.522   2.018  0.6219  0.0535 -0.6037
19288SOL     OW59057   5.209   1.458   7.090 -0.2842  0.4375  0.9808
19288SOL    HW159058   5.177   1.467   7.180  0.8723 -0.3598  1.5119
19288SOL    HW259059   5.244   1.369   7.087  0.0451  0.5938 -0.1454
19289SOL     OW59060   7.524   2.570   5.863 -0.0481 -0.2433 -0.1277
19289SOL    HW159061   7.435   2.605   5.870 -0.4313 -1.5141  1.8735
19289SOL    HW259062   7.525   2.525   5.779 -0.7371  1.1942 -0.9535
19290SOL     OW59063   3.964   3.588   1.832  0.4012  0.2203 -0.1207
19290SOL    HW159064   3.936   3.524   1.897 -0.4376 -0.2629 -0.9368
19290SOL    HW259065   4.060   3.587   1.837  0.3520  0.4637  1.3445
19291SOL     OW59066   0.951   1.548   2.328  0.0204 -0.1880  0.5437
19291SOL    HW159067   0.974   1.620   2.386  0.1523 -0.2356  0.5530
19291SOL    HW259068   1.003   1.474   2.361 -0.4532 -0.4050  0.8099
19292SOL     OW59069   5.542   6.668   7.446  0.2585 -0.3535  0.4200
19292SOL    HW159070   5.633   6.644   7.461  0.5398 -0.5980 -1.4720
19292SOL    HW259071   5.538   6.761   7.468  0.9889 -0.3084  0.3806
19293SOL     OW59072   2.246   5.470   6.247  0.3836  0.5687  0.1994
19293SOL    HW159073   2.328   5.486   6.294  0.2546  0.5154  0.4406
19293SOL    HW259074   2.210   5.391   6.287 -0.7322  1.6352  1.4056
19294SOL     OW59075   8.282   2.152   3.328  0.1583  0.1775  0.2456
19294SOL    HW159076   8.342   2.137   3.400  1.4367 -0.8202 -0.9901
19294SOL    HW259077   8.198   2.119   3.360  1.0860 -1.9665  0.6644
19295SOL     OW59078   5.468   2.773   4.827 -0.5992 -0.3800 -0.2270
19295SOL    HW159079   5.469   2.867   4.813  0.7601 -0.2321  0.6526
19295SOL    HW259080   5.440   2.736   4.743  2.1406  0.6601 -1.7329
19296SOL     OW59081   8.508   4.633   0.431  0.5318  0.0953  0.2010
19296SOL    HW159082   8.435   4.648   0.372 -2.7518 -0.5450  3.6914
19296SOL    HW259083   8.526   4.539   0.424  0.1018  0.0060  0.2565
19297SOL     OW59084   1.892   3.016   7.353  0.4126 -0.4195  0.1929
19297SOL    HW159085   1.907   2.988   7.263 -1.7238 -0.0246 -0.3503
19297SOL    HW259086   1.879   2.935   7.402  1.6024 -0.6363  0.1735
19298SOL     OW59087   8.603   3.685   5.069  0.3582  0.3084  0.2759
19298SOL    HW159088   8.539   3.663   5.001  0.4328  0.9555 -0.0093
19298SOL    HW259089   8.561   3.657   5.151 -0.4506  1.0273  0.1315
19299SOL     OW59090   7.285   2.597   8.266 -0.2768  0.2197  0.1590
19299SOL    HW159091   7.353   2.576   8.330 -0.2097 -1.2400 -0.3510
19299SOL    HW259092   7.267   2.514   8.222 -1.2884  0.9084 -0.7847
19300SOL     OW59093   0.360   1.037   3.353  0.4862  0.6421 -0.3246
19300SOL    HW159094   0.326   1.041   3.263  0.0160 -0.9604 -0.2435
19300SOL    HW259095   0.328   1.117   3.394 -1.0409  0.4121 -1.0048
19301SOL     OW59096   1.807   6.955   6.179 -0.2463  0.2300  0.5038
19301SOL    HW159097   1.875   7.022   6.196 -0.5379  0.9313 -0.9241
19301SOL    HW259098   1.754   6.955   6.259  0.2452  1.1225  0.8584
19302SOL     OW59099   5.529   4.979   6.239 -0.9046  0.8561 -0.2710
19302SOL    HW159100   5.546   5.063   6.280 -0.8359  0.3771  0.7204
19302SOL    HW259101   5.441   4.955   6.267 -0.9196  0.5912 -0.5298
19303SOL     OW59102   4.802   6.180   0.604 -0.0475  0.3479  0.4873
19303SOL    HW159103   4.717   6.135   0.597  0.6103 -0.7863 -1.0339
19303SOL    HW259104   4.801   6.243   0.532  0.9914 -0.8503 -0.6565
19304SOL     OW59105   7.150   1.143   5.711  0.0541 -1.1247 -0.4871
19304SOL    HW159106   7.176   1.137   5.619 -0.0417 -2.3763 -0.4543
19304SOL    HW259107   7.110   1.058   5.730 -2.4682  0.0983 -0.0283
19305SOL     OW59108   7.818   1.297   4.459  0.6114  0.0041 -0.0357
19305SOL    HW159109   7.754   1.297   4.531  0.7894  0.6707  0.1247
19305SOL    HW259110   7.822   1.388   4.430  2.3292  0.1933  0.6928
19306SOL     OW59111   6.613   0.789   6.497  0.3468 -0.0662 -0.2234
19306SOL    HW159112   6.569   0.708   6.471 -0.4704  0.3563 -0.1906
19306SOL    HW259113   6.684   0.798   6.433  2.0816 -2.1150  1.2824
19307SOL     OW59114   0.129   1.816   3.089  0.0836 -0.3066 -0.2067
19307SOL    HW159115   0.126   1.905   3.122 -1.5673 -0.2789 -0.3344
19307SOL    HW259116   0.220   1.788   3.101  0.3557  0.9777  0.8957
19308SOL     OW59117   5.504   3.312   1.118  0.4803  0.1404  0.1308
19308SOL    HW159118   5.513   3.339   1.209  2.2892  3.7475 -0.9405
19308SOL    HW259119   5.467   3.388   1.073 -0.0926 -1.4198 -2.2213
19309SOL     OW59120   5.959   0.665   7.880 -0.5482  0.1652 -0.1175
19309SOL    HW159121   6.043   0.625   7.858 -1.4613 -1.5830 -0.5807
19309SOL    HW259122   5.923   0.693   7.796 -1.0035 -0.2717 -0.0680
19310SOL     OW59123   7.826   4.616   5.364 -0.7292 -0.0072  0.3913
19310SOL    HW159124   7.813   4.696   5.313 -0.5810  0.0684  0.4728
19310SOL    HW259125   7.919   4.615   5.384 -0.7728 -0.0784  0.5914
19311SOL     OW59126   4.889   4.425   7.764 -0.3540 -0.1223  0.1176
19311SOL    HW159127   4.962   4.412   7.703 -0.8317 -0.7850 -0.3226
19311SOL    HW259128   4.898   4.516   7.792  0.7740 -0.2604  0.2509
19312SOL     OW59129   3.753   0.996   0.583  0.2029  0.2338  0.5863
19312SOL    HW159130   3.711   0.927   0.634 -0.8165  0.7058  0.4202
19312SOL    HW259131   3.844   0.996   0.612 -0.1514 -0.1010  1.7554
19313SOL     OW59132   7.901   6.070   5.162  0.1393  0.3319  0.3945
19313SOL    HW159133   7.810   6.101   5.161  0.7470  2.2592  0.8400
19313SOL    HW259134   7.898   5.989   5.212 -1.4413 -0.0469 -0.2375
19314SOL     OW59135   5.419   6.935   4.193  0.0782  0.1770 -0.2701
19314SOL    HW159136   5.327   6.912   4.207 -0.9390  2.0071 -3.0968
19314SOL    HW259137   5.447   6.881   4.120  0.2900  1.6669 -1.3355
19315SOL     OW59138   8.468   5.503   6.725 -0.2484 -0.1705 -0.0316
19315SOL    HW159139   8.422   5.478   6.805 -1.6713 -1.3771 -1.1733
19315SOL    HW259140   8.544   5.446   6.722 -1.0372 -1.2430 -0.2999
19316SOL     OW59141   1.483   2.602   7.476  0.8048 -0.8054 -0.0689
19316SOL    HW159142   1.395   2.591   7.512  0.9978  1.1695  1.1942
19316SOL    HW259143   1.481   2.556   7.393 -1.0796 -1.7400  0.4451
19317SOL     OW59144   7.332   7.967   2.811  0.0870 -0.0323 -0.1684
19317SOL    HW159145   7.369   7.880   2.795 -1.2225 -0.9028  1.1958
19317SOL    HW259146   7.366   8.021   2.740 -0.4627 -2.0851 -2.1368
19318SOL     OW59147   4.071   7.931   3.635  0.0199 -0.1568  0.4309
19318SOL    HW159148   4.080   8.023   3.613 -0.5712  0.1026  1.2371
19318SOL    HW259149   4.151   7.909   3.684 -0.4075  0.2687  1.3439
19319SOL     OW59150   3.753   5.666   5.556 -0.5167 -0.0301  0.0587
19319SOL    HW159151   3.800   5.671   5.639 -1.4901 -0.4993  0.6618
19319SOL    HW259152   3.817   5.693   5.490  1.2693 -2.7049  0.5725
19320SOL     OW59153   8.121   1.618   7.560 -0.0284 -0.2707 -0.6133
19320SOL    HW159154   8.171   1.536   7.558  0.3666 -0.0559  0.0880
19320SOL    HW259155   8.187   1.686   7.546 -0.4541 -0.0944 -1.9266
19321SOL     OW59156   7.497   4.347   2.823 -0.5413  0.4949  0.2721
19321SOL    HW159157   7.404   4.326   2.811 -0.4196 -0.3368  0.7000
19321SOL    HW259158   7.535   4.266   2.856  0.3222  0.8629  0.1949
19322SOL     OW59159   1.889   3.797   8.590  0.0122  0.4615 -0.0132
19322SOL    HW159160   1.983   3.780   8.589  0.2483  1.6469  0.4417
19322SOL    HW259161   1.849   3.712   8.606  0.9355 -0.2931 -1.4938
19323SOL     OW59162   2.750   3.822   1.973  0.3233 -0.4202 -0.4548
19323SOL    HW159163   2.760   3.905   2.021 -2.1713 -0.7510  0.8079
19323SOL    HW259164   2.667   3.831   1.927  1.8465 -0.7969 -3.4954
19324SOL     OW59165   2.897   8.134   2.834 -0.3067 -0.4821  0.1767
19324SOL    HW159166   2.983   8.117   2.872 -0.3081  1.4269  1.1301
19324SOL    HW259167   2.856   8.196   2.895 -2.2458 -1.1109 -0.4145
19325SOL     OW59168   4.769   0.190   2.209 -0.3154 -0.0441  0.3193
19325SOL    HW159169   4.768   0.188   2.305  0.6920 -1.0420  0.3307
19325SOL    HW259170   4.763   0.098   2.183  1.0569  0.0787 -0.5272
19326SOL     OW59171   6.296   7.261   5.463  0.2364 -0.4443 -0.1309
19326SOL    HW159172   6.362   7.324   5.491 -0.4358 -0.2978  1.1721
19326SOL    HW259173   6.235   7.312   5.410 -0.6743  0.1940  1.4621
19327SOL     OW59174   5.042   0.939   7.412  0.0980  0.3881 -0.4952
19327SOL    HW159175   5.009   0.904   7.329 -0.0008 -1.0786  0.1305
19327SOL    HW259176   5.118   0.992   7.388 -1.2465  1.8410 -1.7208
19328SOL     OW59177   4.379   3.875   4.388 -0.7128  0.1334  0.0767
19328SOL    HW159178   4.407   3.827   4.466 -0.5469  1.2916  0.7657
19328SOL    HW259179   4.407   3.821   4.315  0.5515 -0.2368  0.8008
19329SOL     OW59180   8.479   5.718   0.216 -0.1835  0.2320 -0.1725
19329SOL    HW159181   8.553   5.675   0.174 -0.8529  1.1483 -2.4074
19329SOL    HW259182   8.479   5.807   0.181 -1.8316  0.5071  0.4274
19330SOL     OW59183   2.030   0.125   6.081  0.0063  0.6125 -0.0490
19330SOL    HW159184   2.017   0.083   6.166 -1.1536 -1.0663 -1.0019
19330SOL    HW259185   1.957   0.185   6.072 -1.4191 -1.1628 -0.9377
19331SOL     OW59186   6.205   6.506   4.169  0.0739 -0.1047 -0.2723
19331SOL    HW159187   6.285   6.546   4.133  1.8600 -2.4990  0.7763
19331SOL    HW259188   6.171   6.571   4.231  1.9045  0.4832  0.1676
19332SOL     OW59189   2.755   7.641   5.978 -0.0277 -0.6999  0.2305
19332SOL    HW159190   2.752   7.730   6.013  0.0230 -0.2357 -0.8900
19332SOL    HW259191   2.734   7.585   6.053 -0.6392  0.2860  0.8229
19333SOL     OW59192   1.847   6.247   5.593 -0.1911 -0.1712 -0.5091
19333SOL    HW159193   1.932   6.259   5.549  0.3171  0.2972  0.5641
19333SOL    HW259194   1.869   6.242   5.686 -1.4238  0.6968 -0.1514
19334SOL     OW59195   4.754   7.481   0.716 -0.2000 -0.6059  0.0075
19334SOL    HW159196   4.788   7.520   0.635  0.2227 -0.5777  0.1958
19334SOL    HW259197   4.822   7.498   0.781 -0.9929  0.2784  0.6244
19335SOL     OW59198   6.564   5.916   5.553  0.1000 -0.1247  0.1016
19335SOL    HW159199   6.562   6.009   5.576  1.3348  0.2460 -1.1613
19335SOL    HW259200   6.636   5.881   5.605 -0.6274 -0.4879  0.8878
19336SOL     OW59201   5.743   2.985   4.145 -0.6992 -0.0701 -0.1352
19336SOL    HW159202   5.766   2.984   4.052 -1.4104  0.4644 -0.3196
19336SOL    HW259203   5.747   2.893   4.172 -1.1157 -0.2985 -0.8463
19337SOL     OW59204   4.620   0.846   3.690  0.4630 -0.0377  0.2251
19337SOL    HW159205   4.682   0.918   3.684  0.0307  0.3201 -0.0396
19337SOL    HW259206   4.544   0.883   3.735  0.1660 -0.2733 -0.0767
19338SOL     OW59207   5.319   5.634   2.083  0.7700  0.1185  0.3924
19338SOL    HW159208   5.312   5.616   2.177  1.4418 -0.5974  0.3163
19338SOL    HW259209   5.355   5.722   2.077 -1.0569  0.9482  0.7847
19339SOL     OW59210   7.078   8.155   5.051  0.2570  0.3570 -0.0122
19339SOL    HW159211   7.005   8.096   5.031  0.3777  0.0539  0.4329
19339SOL    HW259212   7.041   8.220   5.110  0.4049  0.0599  0.4123
19340SOL     OW59213   3.909   5.764   0.293  0.2036 -0.4084 -0.3545
19340SOL    HW159214   3.907   5.807   0.208 -1.3528 -0.6459 -0.4636
19340SOL    HW259215   3.860   5.822   0.351  2.8102  0.6883  0.8926
19341SOL     OW59216   2.773   3.722   7.516 -0.4359  0.6812  0.0209
19341SOL    HW159217   2.755   3.768   7.598 -0.7479  0.6950 -0.0535
19341SOL    HW259218   2.860   3.753   7.490 -0.7413  1.4277 -0.1571
19342SOL     OW59219   1.023   0.720   3.983  0.0269  0.0062  0.0894
19342SOL    HW159220   0.947   0.741   4.038 -0.7015  0.4335 -1.0584
19342SOL    HW259221   1.015   0.627   3.966  0.0138 -0.0392  0.3298
19343SOL     OW59222   5.773   2.134   8.049 -0.6291  0.7057  0.5584
19343SOL    HW159223   5.819   2.112   8.130 -1.2600 -0.4937  0.6169
19343SOL    HW259224   5.761   2.229   8.054  0.2453  0.7967  1.3786
19344SOL     OW59225   4.662   4.920   0.264  0.3567 -0.0737 -0.2226
19344SOL    HW159226   4.692   5.011   0.262 -0.8757  0.3699 -2.2171
19344SOL    HW259227   4.572   4.925   0.295  0.9010 -0.8948  1.6300
19345SOL     OW59228   2.132   4.515   3.739 -0.3638  0.2881  0.2073
19345SOL    HW159229   2.045   4.505   3.779 -1.0268 -0.5935 -1.3411
19345SOL    HW259230   2.193   4.489   3.808 -1.3967 -0.1334  0.9917
19346SOL     OW59231   7.939   3.693   8.432  0.3342 -0.5165 -0.3974
19346SOL    HW159232   7.863   3.676   8.488 -0.0696  0.5902 -0.5765
19346SOL    HW259233   7.931   3.629   8.361  1.1446 -2.2843  1.0360
19347SOL     OW59234   3.639   4.242   3.186  0.0931 -0.3988 -1.0986
19347SOL    HW159235   3.678   4.208   3.106 -0.6417 -2.4668 -0.6475
19347SOL    HW259236   3.709   4.235   3.251  1.3644  3.1856 -1.8846
19348SOL     OW59237   1.473   5.178   4.830 -0.0308  0.0942  0.3079
19348SOL    HW159238   1.566   5.160   4.843  0.2698  1.9220  1.0246
19348SOL    HW259239   1.470   5.232   4.751 -0.7868 -1.9357 -1.1594
19349SOL     OW59240   2.035   5.105   2.265 -0.0295 -0.4884 -0.0324
19349SOL    HW159241   1.982   5.025   2.260  0.9794 -1.0833 -1.9075
19349SOL    HW259242   2.095   5.089   2.338 -1.8883 -0.0761  1.6964
19350SOL     OW59243   3.916   8.350   5.284 -0.1685  0.6616  0.1378
19350SOL    HW159244   3.873   8.339   5.199 -0.6337  0.1995  0.4239
19350SOL    HW259245   3.846   8.378   5.343 -0.1525 -0.3399  0.6659
19351SOL     OW59246   2.578   4.537   3.197  0.3339 -0.4037 -0.9056
19351SOL    HW159247   2.630   4.580   3.128  0.8616  1.4303  0.5261
19351SOL    HW259248   2.637   4.470   3.232  0.0754 -1.3299 -2.1560
19352SOL     OW59249   7.242   6.225   3.826  0.2468 -0.5946 -0.5340
19352SOL    HW159250   7.295   6.146   3.824  0.1279 -0.6559 -1.6423
19352SOL    HW259251   7.155   6.196   3.854  0.3862 -0.7331 -0.2384
19353SOL     OW59252   4.558   3.417   7.220  0.5289 -0.0546  0.1948
19353SOL    HW159253   4.540   3.336   7.268 -0.8966  0.6273  0.8779
19353SOL    HW259254   4.588   3.478   7.286 -0.0052  0.4584 -0.0278
19354SOL     OW59255   7.274   1.998   0.748 -0.1930  0.1624  0.3654
19354SOL    HW159256   7.207   2.062   0.724 -2.1689 -0.6481  3.2156
19354SOL    HW259257   7.343   2.009   0.682 -2.0364  2.6997 -1.3062
19355SOL     OW59258   5.326   5.846   7.731 -0.0308  0.4959  0.3361
19355SOL    HW159259   5.301   5.868   7.820  1.2239  1.8120  0.3947
19355SOL    HW259260   5.273   5.903   7.675 -2.6951 -2.0328  0.0035
19356SOL     OW59261   8.525   0.874   4.737  0.3052  0.1726  0.3418
19356SOL    HW159262   8.507   0.885   4.644  1.2899 -0.3636  0.0803
19356SOL    HW259263   8.593   0.807   4.742 -0.9701 -1.1185  1.5519
19357SOL     OW59264   6.432   0.345   0.000 -0.1674  0.1493  0.1565
19357SOL    HW159265   6.357   0.380  -0.046  0.1240  0.1052 -0.3535
19357SOL    HW259266   6.507   0.390  -0.038  0.1834 -0.7537 -0.2607
19358SOL     OW59267   8.365   3.053   8.190  0.3029  0.1786  0.4581
19358SOL    HW159268   8.408   3.056   8.276  1.7414  0.1496 -0.2183
19358SOL    HW259269   8.386   3.138   8.150 -0.5028  0.2593  0.2033
19359SOL     OW59270   5.378   4.886   1.594 -0.2193 -0.6837  0.8057
19359SOL    HW159271   5.452   4.939   1.564 -0.0585 -1.1662  0.3399
19359SOL    HW259272   5.305   4.948   1.600  0.6654  0.2196  3.1922
19360SOL     OW59273   7.374   1.257   5.122 -0.6656  0.8522 -0.3205
19360SOL    HW159274   7.425   1.296   5.052  2.0526 -2.5085 -0.4886
19360SOL    HW259275   7.395   1.308   5.200  0.9781  1.1120 -0.9067
19361SOL     OW59276   6.151   1.577   7.482  0.4496 -0.5585 -0.0616
19361SOL    HW159277   6.080   1.602   7.423  1.8416  1.1346 -1.0800
19361SOL    HW259278   6.136   1.629   7.561  0.7571  0.0898 -0.4242
19362SOL     OW59279   8.471   2.505   4.417  0.5377 -0.4939  0.1861
19362SOL    HW159280   8.451   2.412   4.427  2.2369 -0.7905  1.3064
19362SOL    HW259281   8.475   2.538   4.507  1.0724  0.3984 -0.1524
19363SOL     OW59282   2.073   4.744   6.882  0.1543 -0.1279 -0.0543
19363SOL    HW159283   2.128   4.720   6.956 -1.0884 -0.7842  0.6855
19363SOL    HW259284   2.125   4.719   6.805  0.2768 -2.2094  0.6335
19364SOL     OW59285   3.576   6.148   3.648 -0.0929  0.1709  0.3294
19364SOL    HW159286   3.493   6.136   3.601 -0.1213 -1.2944  0.7080
19364SOL    HW259287   3.620   6.063   3.642  0.6616  0.4482  1.5108
19365SOL     OW59288   8.054   7.118   5.003  0.1003 -0.0425  0.0218
19365SOL    HW159289   7.996   7.137   5.076 -1.4984 -0.0705 -1.1892
19365SOL    HW259290   8.120   7.188   5.006 -1.0153  1.0264  0.4016
19366SOL     OW59291   4.261   7.506   1.760 -0.2318 -0.5534 -0.1018
19366SOL    HW159292   4.297   7.418   1.745 -0.7352 -0.6404 -0.8298
19366SOL    HW259293   4.307   7.562   1.698 -1.0931 -0.6033 -0.7982
19367SOL     OW59294   2.181   1.884   0.628 -0.0776  0.2242  0.4074
19367SOL    HW159295   2.198   1.797   0.663 -0.3825  0.5735  1.4744
19367SOL    HW259296   2.244   1.941   0.673 -0.0600  0.5936 -0.0768
19368SOL     OW59297   1.198   7.829   3.023  0.5269  0.1245  0.2551
19368SOL    HW159298   1.223   7.791   2.939 -1.5083  0.8472 -0.7270
19368SOL    HW259299   1.262   7.899   3.038  0.3655  0.6212 -1.1977
19369SOL     OW59300   7.650   1.333   1.975 -0.3482 -0.2423  0.0920
19369SOL    HW159301   7.620   1.257   1.926  0.3845 -1.0253  0.8247
19369SOL    HW259302   7.596   1.405   1.942 -2.9740 -1.5321  1.2151
19370SOL     OW59303   7.137   6.427   5.332  0.4668 -0.2969 -0.2095
19370SOL    HW159304   7.125   6.452   5.424  1.5963 -0.4173 -0.0172
19370SOL    HW259305   7.099   6.500   5.283  0.4623  0.0891  0.3502
19371SOL     OW59306   5.768   5.688   5.810 -0.6623  0.5145 -0.2082
19371SOL    HW159307   5.786   5.744   5.735 -2.7916  1.4049 -0.0991
19371SOL    HW259308   5.830   5.717   5.877  1.2874 -0.3141 -1.5713
19372SOL     OW59309   2.578   6.414   3.833 -0.1690 -0.3594  0.0856
19372SOL    HW159310   2.629   6.337   3.862 -1.4105 -1.1717  0.1929
19372SOL    HW259311   2.642   6.470   3.790  0.6360 -1.8495 -0.7647
19373SOL     OW59312   2.923   0.233   3.951  0.1284 -0.1567  0.6219
19373SOL    HW159313   2.856   0.250   4.018  0.5795 -1.4163  1.4365
19373SOL    HW259314   2.915   0.139   3.933  0.4068  0.0581 -0.6882
19374SOL     OW59315   2.170   8.312   1.260  0.3210 -0.0194 -0.2161
19374SOL    HW159316   2.142   8.229   1.300  0.4456 -0.0350 -0.1629
19374SOL    HW259317   2.195   8.367   1.334 -0.9091  0.4942 -0.1572
19375SOL     OW59318   2.629   7.335   8.140 -0.5570 -0.0158 -0.4408
19375SOL    HW159319   2.534   7.345   8.143 -0.4587  1.6004 -1.4334
19375SOL    HW259320   2.646   7.295   8.055 -0.4287 -1.9685  0.4597
19376SOL     OW59321   4.063   3.518   1.131  0.4368  0.0793 -0.3679
19376SOL    HW159322   4.042   3.573   1.055  1.2219  0.4386 -0.3314
19376SOL    HW259323   4.057   3.578   1.205  0.5635 -0.0634 -0.2436
19377SOL     OW59324   6.934   7.018   2.417 -0.1181 -0.0841 -0.3286
19377SOL    HW159325   6.994   7.004   2.343 -0.7002  2.3478 -1.3859
19377SOL    HW259326   6.950   7.109   2.442 -1.1796 -0.3593  1.4389
19378SOL     OW59327   3.851   0.492   2.605 -0.4789  0.5397  0.2425
19378SOL    HW159328   3.860   0.397   2.597  0.8805  0.6756 -0.1995
19378SOL    HW259329   3.889   0.513   2.691 -0.1417  0.7439  0.0470
19379SOL     OW59330   6.043   7.599   1.452  0.3797 -0.2386  0.3263
19379SOL    HW159331   6.063   7.655   1.377  0.1299 -0.7817 -0.1612
19379SOL    HW259332   5.967   7.640   1.493 -0.2818 -0.6315 -0.4832
19380SOL     OW59333   1.839   2.291   3.501  0.1000  0.8079 -0.0142
19380SOL    HW159334   1.903   2.227   3.469  0.7239  0.4897  1.7502
19380SOL    HW259335   1.834   2.357   3.433  0.7314 -0.2454 -1.1175
19381SOL     OW59336   5.424   0.064   5.011  0.4751 -0.0843  0.0630
19381SOL    HW159337   5.495   0.117   5.047 -0.0580  1.2610 -0.7773
19381SOL    HW259338   5.366   0.049   5.086  0.8492  0.1482  0.4093
19382SOL     OW59339   4.549   6.230   3.870 -0.0247 -0.2448  0.2025
19382SOL    HW159340   4.527   6.321   3.892 -1.0393 -0.0092 -1.6363
19382SOL    HW259341   4.495   6.177   3.930 -1.8097  0.3771 -0.7828
19383SOL     OW59342   5.539   6.983   4.447 -0.3067  0.3914  0.0065
19383SOL    HW159343   5.488   6.948   4.373 -0.6653  1.7373 -0.4182
19383SOL    HW259344   5.477   7.041   4.492 -0.0250 -0.2556  1.2601
19384SOL     OW59345   7.365   5.462   4.367  0.1256 -0.3906  0.8757
19384SOL    HW159346   7.345   5.479   4.275  0.2239 -1.7222  0.5931
19384SOL    HW259347   7.413   5.540   4.396  2.3123 -0.9687 -0.9191
19385SOL     OW59348   2.776   6.275   3.662 -0.9559  0.2920 -0.1486
19385SOL    HW159349   2.763   6.370   3.665  1.1934  0.6447 -0.3635
19385SOL    HW259350   2.750   6.250   3.573 -0.3720  0.9020 -0.5032
19386SOL     OW59351   5.277   6.223   6.573  0.1626  0.0265 -0.1482
19386SOL    HW159352   5.233   6.145   6.606 -0.4282  0.6116  0.4725
19386SOL    HW259353   5.249   6.230   6.482 -0.2616 -0.1493 -0.0336
19387SOL     OW59354   2.935   3.794   5.081 -0.2534 -0.2343  0.8006
19387SOL    HW159355   3.007   3.753   5.129  0.7127  1.8483  1.2328
19387SOL    HW259356   2.883   3.838   5.148 -0.5217  0.3169  0.2422
19388SOL     OW59357   6.890   2.802   5.101 -0.5604  0.6279 -0.4784
19388SOL    HW159358   6.867   2.709   5.107  1.7613 -0.0408 -0.9667
19388SOL    HW259359   6.858   2.840   5.183  0.8572 -1.1955  1.0190
19389SOL     OW59360   7.959   5.741   4.953 -0.3262 -0.3330 -0.7700
19389SOL    HW159361   8.025   5.688   4.998 -0.6717  0.3120  0.5470
19389SOL    HW259362   7.930   5.687   4.879  0.0350 -1.5530 -0.0307
19390SOL     OW59363   4.619   0.119   6.751  0.3237  0.2281  0.0705
19390SOL    HW159364   4.613   0.134   6.657 -0.6786  2.1267  0.3813
19390SOL    HW259365   4.632   0.207   6.788 -2.2233 -0.0453  1.8975
19391SOL     OW59366   4.653   5.421   5.197  0.4105 -0.0631  0.6481
19391SOL    HW159367   4.719   5.394   5.134  0.7973 -0.0996  1.0627
19391SOL    HW259368   4.594   5.479   5.148  0.2887 -0.6716  0.0764
19392SOL     OW59369   6.682   4.785   7.831 -0.3055  0.0559 -0.5343
19392SOL    HW159370   6.592   4.760   7.812 -0.4777 -0.7445  1.1596
19392SOL    HW259371   6.735   4.721   7.784 -0.5859  0.7450 -1.8294
19393SOL     OW59372   8.369   0.160   3.629  0.4442  0.0115 -0.0505
19393SOL    HW159373   8.436   0.163   3.560 -0.7553  0.7654 -1.2262
19393SOL    HW259374   8.396   0.088   3.686  1.3810 -0.7381 -1.3933
19394SOL     OW59375   4.126   7.597   2.806 -0.5432  0.2617  0.2629
19394SOL    HW159376   4.077   7.666   2.849  0.9451  0.6733  1.3914
19394SOL    HW259377   4.195   7.642   2.757  0.7071 -0.3870  1.3493
19395SOL     OW59378   7.928   5.293   1.395  0.5533 -0.1931  0.0166
19395SOL    HW159379   7.858   5.240   1.433 -0.5544 -0.0952 -1.7900
19395SOL    HW259380   7.992   5.230   1.363  1.2081 -0.2882  1.4141
19396SOL     OW59381   8.552   3.737   1.908 -0.1376 -0.0285 -0.3612
19396SOL    HW159382   8.647   3.753   1.916 -0.4700  1.8292  0.5455
19396SOL    HW259383   8.533   3.755   1.816  0.4353 -0.8115 -0.6482
19397SOL     OW59384   8.272   7.101   7.288  0.1376  0.9598 -0.3164
19397SOL    HW159385   8.353   7.062   7.318 -0.5096  0.6149  1.0490
19397SOL    HW259386   8.249   7.051   7.210  0.1367 -0.3865  0.5175
19398SOL     OW59387   0.319   4.594   0.306  0.3958 -0.3502 -0.1692
19398SOL    HW159388   0.267   4.580   0.386  1.4838 -0.2941  0.5707
19398SOL    HW259389   0.272   4.663   0.259  0.1186  0.1251  0.7737
19399SOL     OW59390   2.788   6.475   7.032  0.0209 -0.5903 -0.4622
19399SOL    HW159391   2.753   6.501   7.118 -0.5194  1.8787 -1.3520
19399SOL    HW259392   2.871   6.430   7.053 -1.4135 -2.5904  1.4388
19400SOL     OW59393   6.894   1.836   1.213  0.1228  0.5695  0.4465
19400SOL    HW159394   6.950   1.855   1.288 -1.8399  2.7390  1.4655
19400SOL    HW259395   6.879   1.741   1.218  1.5458  0.3785  1.6596
19401SOL     OW59396   0.367   4.967   2.889  0.0856 -0.2401  0.3159
19401SOL    HW159397   0.284   4.918   2.891 -0.3372  0.0160 -3.4758
19401SOL    HW259398   0.342   5.056   2.913 -0.6899 -0.2537 -0.3885
19402SOL     OW59399   7.292   1.650   4.761  0.1045 -0.4139 -0.5855
19402SOL    HW159400   7.373   1.658   4.811 -0.3043  2.6158 -0.1963
19402SOL    HW259401   7.222   1.663   4.825 -0.5488 -0.0110 -1.3583
19403SOL     OW59402   4.550   4.865   1.755 -0.2363 -0.5532 -0.0305
19403SOL    HW159403   4.630   4.906   1.721 -0.5692  0.8579  0.7982
19403SOL    HW259404   4.569   4.849   1.848 -1.1916  0.6407  0.4055
19404SOL     OW59405   3.593   1.112   6.665 -0.4000  0.1044 -0.3439
19404SOL    HW159406   3.557   1.024   6.674 -0.2616  0.2058  1.7774
19404SOL    HW259407   3.685   1.104   6.692 -0.5193  0.9715  0.3754
19405SOL     OW59408   3.636   3.955   3.088  0.9953 -0.6308 -0.2414
19405SOL    HW159409   3.633   3.885   3.022  1.0301 -0.4219 -0.4642
19405SOL    HW259410   3.686   4.025   3.047 -0.3292  0.1464 -0.6178
19406SOL     OW59411   7.879   2.625   3.826 -0.9443 -0.0443  0.1219
19406SOL    HW159412   7.934   2.659   3.896 -1.1712  0.0529  0.2533
19406SOL    HW259413   7.815   2.568   3.871 -0.4650 -0.7792 -0.1060
19407SOL     OW59414   1.227   3.393   5.311  0.4963 -0.1262 -0.3651
19407SOL    HW159415   1.186   3.423   5.393  0.0704  0.7147 -0.8681
19407SOL    HW259416   1.254   3.474   5.268  2.9874 -0.6434  0.0713
19408SOL     OW59417   0.023   0.892   0.204 -0.6714 -0.7147  0.0209
19408SOL    HW159418   0.006   0.887   0.110  0.2416  1.1940 -0.2939
19408SOL    HW259419   0.102   0.838   0.216  0.2167  0.3983 -0.6301
19409SOL     OW59420   6.217   2.152   1.033 -0.0229  0.5247 -0.1801
19409SOL    HW159421   6.216   2.198   0.948  0.2686 -2.1138 -1.7219
19409SOL    HW259422   6.259   2.214   1.093  1.2577  1.8984 -2.3532
19410SOL     OW59423   1.039   4.934   7.166 -0.0792 -0.1475 -0.1578
19410SOL    HW159424   1.104   4.947   7.236 -0.8287 -1.3086  0.7963
19410SOL    HW259425   1.072   4.859   7.117 -0.0190  0.1001 -0.4961
19411SOL     OW59426   0.751   7.022   8.175 -0.1424  0.1269 -0.5949
19411SOL    HW159427   0.827   6.978   8.136  1.0021  1.8633 -0.4656
19411SOL    HW259428   0.735   7.097   8.118 -1.7463 -0.1597 -0.5654
19412SOL     OW59429   4.331   7.242   6.050  0.2170 -0.1303 -0.0014
19412SOL    HW159430   4.306   7.299   6.123 -1.6073  0.2702 -0.8627
19412SOL    HW259431   4.294   7.285   5.973 -1.1096 -2.3651 -0.7076
19413SOL     OW59432   1.438   7.989   4.976 -0.2513 -0.4548  0.4680
19413SOL    HW159433   1.419   8.083   4.971 -2.0248 -0.5780  2.8208
19413SOL    HW259434   1.372   7.948   4.919 -0.3191 -0.3388  0.4627
19414SOL     OW59435   8.182   0.508   7.002  0.8776  0.0207 -0.9182
19414SOL    HW159436   8.224   0.448   7.063  3.2746  2.3070 -0.1704
19414SOL    HW259437   8.238   0.507   6.925 -1.0645 -1.3444 -2.4350
19415SOL     OW59438   1.777   5.937   7.186  0.0887  0.2812  0.3685
19415SOL    HW159439   1.778   5.934   7.282  0.5824  1.6900  0.4255
19415SOL    HW259440   1.763   5.846   7.160 -0.0599 -0.1273  1.7759
19416SOL     OW59441   4.700   7.460   3.037 -0.5225 -0.4529 -0.0563
19416SOL    HW159442   4.744   7.375   3.034 -0.0810 -0.1987 -1.2151
19416SOL    HW259443   4.746   7.508   3.106  0.3737 -0.5540 -0.5672
19417SOL     OW59444   8.316   6.286   5.045 -0.4487 -0.3858 -0.2673
19417SOL    HW159445   8.248   6.342   5.007 -1.0174 -1.9905 -1.7561
19417SOL    HW259446   8.323   6.314   5.136 -0.3745  2.3829 -1.0443
19418SOL     OW59447   7.845   2.010   6.648 -0.7150  0.2331 -0.3595
19418SOL    HW159448   7.863   2.015   6.742 -1.6533 -0.8006 -0.1076
19418SOL    HW259449   7.830   2.101   6.622  0.5684  0.6481  0.2691
19419SOL     OW59450   7.897   4.961   7.563 -0.4339 -0.6118 -0.1001
19419SOL    HW159451   7.909   4.868   7.581 -1.6017 -0.8523 -0.4856
19419SOL    HW259452   7.986   4.996   7.560 -0.0302 -1.3848  1.6795
19420SOL     OW59453   2.498   5.906   3.024  0.0063  0.5524  0.2238
19420SOL    HW159454   2.469   5.897   2.934 -0.1941  0.2375  0.3168
19420SOL    HW259455   2.490   6.000   3.043 -4.0684  0.2155  1.2265
19421SOL     OW59456   3.038   5.784   7.110 -0.1391  0.2371 -0.0742
19421SOL    HW159457   2.980   5.724   7.156 -0.0372  1.1546  1.3105
19421SOL    HW259458   3.086   5.728   7.049 -0.9892 -0.8618  0.2220
19422SOL     OW59459   7.687   0.532   6.469  0.4416  0.3187  0.2344
19422SOL    HW159460   7.632   0.552   6.393  0.9058 -0.9349 -0.4463
19422SOL    HW259461   7.643   0.576   6.542 -2.0843 -1.5201 -0.0703
19423SOL     OW59462   6.377   3.925   8.536 -0.1947 -0.1694 -0.0293
19423SOL    HW159463   6.454   3.945   8.590  0.5284  1.6372 -1.6063
19423SOL    HW259464   6.404   3.852   8.481 -0.0390 -0.3532  0.2920
19424SOL     OW59465   1.158   5.939   5.444 -0.1827  0.2706  0.4308
19424SOL    HW159466   1.182   5.918   5.534 -2.0346  0.6582  1.0595
19424SOL    HW259467   1.144   5.854   5.402  0.0670  0.0994  0.6930
19425SOL     OW59468   1.392   1.410   5.782 -0.1127  0.3906 -0.3220
19425SOL    HW159469   1.486   1.388   5.783 -0.4311 -1.4214 -2.1328
19425SOL    HW259470   1.388   1.493   5.734  0.5135 -0.2261 -1.5221
19426SOL     OW59471   8.484   4.397   4.966  0.4927  0.2753 -0.1150
19426SOL    HW159472   8.428   4.325   4.993  0.5895  0.1017 -0.3793
19426SOL    HW259473   8.461   4.413   4.875  3.3309 -2.1628 -1.4131
19427SOL     OW59474   5.695   5.336   0.432 -0.2929 -0.6947  0.1042
19427SOL    HW159475   5.717   5.248   0.462  3.0169 -0.0956 -0.2307
19427SOL    HW259476   5.613   5.357   0.477 -0.7595 -3.5921  0.7981
19428SOL     OW59477   1.330   2.921   3.288 -0.0298  0.7043  0.7054
19428SOL    HW159478   1.347   2.979   3.213  1.8505  0.0129  0.5458
19428SOL    HW259479   1.297   2.980   3.356  0.6851  1.7803  0.1634
19429SOL     OW59480   4.508   4.624   3.555  0.1751  0.5712 -0.5306
19429SOL    HW159481   4.415   4.604   3.566  0.4208 -0.6047 -0.3550
19429SOL    HW259482   4.535   4.661   3.639  0.0162  0.2013 -0.3097
19430SOL     OW59483   4.687   7.414   8.184 -0.6474  0.0948  0.1720
19430SOL    HW159484   4.619   7.478   8.161  0.6376  1.4735  0.0734
19430SOL    HW259485   4.729   7.451   8.261  0.9227  0.0169 -0.6064
19431SOL     OW59486   1.587   6.356   1.324  0.0230 -0.2198 -0.0176
19431SOL    HW159487   1.535   6.427   1.363 -0.9737 -0.6399 -0.5307
19431SOL    HW259488   1.522   6.300   1.281  0.9449 -0.5428 -1.0388
19432SOL     OW59489   3.836   0.067   1.611  0.0561  0.4815 -0.3159
19432SOL    HW159490   3.801   0.148   1.574 -3.6951 -1.6426 -1.8952
19432SOL    HW259491   3.759   0.015   1.634  2.2751 -2.4132  1.2831
19433SOL     OW59492   2.766   5.774   8.067  0.6107  0.0098 -0.2946
19433SOL    HW159493   2.810   5.810   8.144 -0.7234 -0.7051  0.8587
19433SOL    HW259494   2.756   5.681   8.087  1.0924 -0.3848 -1.7823
19434SOL     OW59495   4.497   0.956   3.413  0.6579 -0.0401  0.0335
19434SOL    HW159496   4.546   0.887   3.457  0.6086 -1.0421 -1.4197
19434SOL    HW259497   4.560   1.028   3.406  1.4397 -0.7495 -0.4322
19435SOL     OW59498   4.352   4.698   8.461  0.0135  0.0470 -0.5579
19435SOL    HW159499   4.286   4.643   8.502  1.4423 -0.6431  0.9385
19435SOL    HW259500   4.428   4.641   8.451  0.4544  0.8523 -2.1100
19436SOL     OW59501   5.994   0.263   3.560 -0.8289  0.2975  0.2262
19436SOL    HW159502   5.921   0.311   3.521 -0.8994 -1.2083 -1.6243
19436SOL    HW259503   6.020   0.200   3.493  1.0418 -0.3973  1.5172
19437SOL     OW59504   0.622   3.510   6.836 -0.0739  0.8268  0.0777
19437SOL    HW159505   0.655   3.421   6.824  0.3445  1.1964 -2.0049
19437SOL    HW259506   0.676   3.563   6.777 -1.0876  2.2689  0.3979
19438SOL     OW59507   3.423   6.482   7.474 -0.9162  0.1103  0.5901
19438SOL    HW159508   3.404   6.438   7.391 -1.2479  0.3720  0.5254
19438SOL    HW259509   3.345   6.534   7.493 -0.9338 -0.1239  1.1860
19439SOL     OW59510   2.509   2.712   1.089  0.2374 -1.0738 -0.2888
19439SOL    HW159511   2.473   2.763   1.016 -1.3668 -0.4601  0.8527
19439SOL    HW259512   2.463   2.628   1.084  1.1616 -1.5663 -0.7845
19440SOL     OW59513   3.931   3.038   2.129  0.3511 -0.0531 -0.0781
19440SOL    HW159514   4.015   3.072   2.098 -0.3616  1.5470 -0.3318
19440SOL    HW259515   3.954   2.977   2.199  1.7262  0.2329 -0.2602
19441SOL     OW59516   6.387   1.478   7.049  0.4804 -0.5251 -0.8539
19441SOL    HW159517   6.339   1.409   7.094  1.1593  0.0015  0.7455
19441SOL    HW259518   6.320   1.525   7.000 -0.6091 -0.1292  0.9167
19442SOL     OW59519   6.003   4.497   8.472  0.3653 -0.4016  0.3589
19442SOL    HW159520   5.952   4.572   8.503 -0.7766  0.1214 -2.5197
19442SOL    HW259521   6.070   4.484   8.540  0.3666  2.9688  1.1772
19443SOL     OW59522   8.526   3.043   2.142 -0.2752  0.7245 -0.2933
19443SOL    HW159523   8.590   3.049   2.071  1.1460 -0.1623  0.8787
19443SOL    HW259524   8.560   2.976   2.200 -1.7891  0.9182  0.8845
19444SOL     OW59525   6.753   6.677   1.309  0.0273  0.4659 -0.4524
19444SOL    HW159526   6.789   6.620   1.376 -1.7576 -0.8487 -0.5367
19444SOL    HW259527   6.670   6.708   1.346  1.6469  4.5202  0.3575
19445SOL     OW59528   3.925   6.355   3.185 -0.2039 -0.3788 -0.0141
19445SOL    HW159529   3.884   6.270   3.167 -1.2751  0.0340  0.3509
19445SOL    HW259530   3.859   6.419   3.158  0.0024  0.3098  1.0508
19446SOL     OW59531   0.427   3.737   2.033  0.0287 -0.5799 -0.2177
19446SOL    HW159532   0.344   3.701   2.067 -0.3387 -0.3760 -0.8778
19446SOL    HW259533   0.438   3.820   2.080 -1.2430  0.4310 -1.6306
19447SOL     OW59534   7.370   6.820   3.332  1.0076  1.2388  0.2024
19447SOL    HW159535   7.453   6.865   3.318  2.1707 -0.5630  0.9190
19447SOL    HW259536   7.387   6.763   3.407 -0.9478  0.9799  0.4834
19448SOL     OW59537   8.234   6.678   0.838  0.6043 -0.2267 -0.6482
19448SOL    HW159538   8.226   6.694   0.744  1.0643 -2.1680 -1.0655
19448SOL    HW259539   8.206   6.760   0.879 -0.9586  0.2097 -2.4381
19449SOL     OW59540   3.068   3.585   2.844  0.7397 -0.4002 -0.0816
19449SOL    HW159541   3.155   3.544   2.844  0.8676 -0.1322 -0.1705
19449SOL    HW259542   3.074   3.652   2.776  0.7173  0.1653  0.4723
19450SOL     OW59543   4.317   0.465   3.618  0.0618  0.2447  0.0689
19450SOL    HW159544   4.290   0.548   3.656 -0.4996 -0.0923  0.4293
19450SOL    HW259545   4.375   0.426   3.683  0.5132  0.4480 -0.2010
19451SOL     OW59546   0.885   7.332   5.046 -0.5304  0.3272 -0.0787
19451SOL    HW159547   0.911   7.325   5.138  0.1752  1.0352 -0.2040
19451SOL    HW259548   0.790   7.342   5.048 -0.3963  1.8010  0.6903
19452SOL     OW59549   8.136   0.797   6.904  0.0963 -0.5936 -0.0462
19452SOL    HW159550   8.159   0.710   6.870  0.2771  0.1621 -1.9854
19452SOL    HW259551   8.041   0.800   6.903  0.0612 -1.0530  0.8519
19453SOL     OW59552   2.713   6.721   0.800  0.0036  0.0933 -0.6559
19453SOL    HW159553   2.668   6.671   0.868 -0.3760  0.6769 -0.4725
19453SOL    HW259554   2.735   6.804   0.841 -0.9194  0.7638 -1.4578
19454SOL     OW59555   1.615   3.445   6.669 -0.0928 -0.3991  1.0004
19454SOL    HW159556   1.596   3.369   6.724 -0.2932  0.3039  1.9333
19454SOL    HW259557   1.591   3.520   6.724  0.5436  0.3464  0.2699
19455SOL     OW59558   3.497   5.443   6.444 -0.2555 -0.2765 -0.3410
19455SOL    HW159559   3.490   5.440   6.349 -1.7517 -0.2982 -0.2573
19455SOL    HW259560   3.498   5.537   6.465  1.3472 -0.2542 -0.4315
19456SOL     OW59561   5.536   5.090   1.540 -0.5551 -0.1433  0.8541
19456SOL    HW159562   5.618   5.106   1.587 -0.9013 -0.1542  1.4610
19456SOL    HW259563   5.479   5.163   1.564 -0.8191 -0.2812  0.6515
19457SOL     OW59564   3.426   7.331   6.145  0.1761 -0.3109  0.1974
19457SOL    HW159565   3.391   7.281   6.219 -0.2485  0.7480  0.7381
19457SOL    HW259566   3.428   7.421   6.177  0.7888  0.0372 -0.8027
19458SOL     OW59567   4.551   1.338   3.700 -0.1095 -0.2848 -0.1612
19458SOL    HW159568   4.579   1.429   3.702 -1.2274  0.0797  0.0653
19458SOL    HW259569   4.616   1.293   3.646  0.6610  0.5675  0.0410
19459SOL     OW59570   7.816   0.120   1.324  0.0827 -0.6051 -0.3732
19459SOL    HW159571   7.761   0.058   1.276 -1.1252  0.8200 -0.9163
19459SOL    HW259572   7.892   0.134   1.267 -0.1804 -0.7465 -0.7582
19460SOL     OW59573   1.101   2.711   6.674  0.0699 -0.1502  0.1707
19460SOL    HW159574   1.152   2.786   6.642 -0.6941  0.1101 -0.4655
19460SOL    HW259575   1.138   2.636   6.628  2.2100 -0.5251  2.3040
19461SOL     OW59576   4.186   2.778   7.154  0.1914  0.2634 -0.0152
19461SOL    HW159577   4.182   2.874   7.149  1.7567  0.2876 -2.0887
19461SOL    HW259578   4.100   2.749   7.123 -0.0459  0.9927 -0.0619
19462SOL     OW59579   7.635   0.775   2.464  0.3939 -0.3230 -0.2788
19462SOL    HW159580   7.686   0.701   2.432  1.1400  0.9839 -2.2996
19462SOL    HW259581   7.569   0.790   2.396  0.7030  1.2839 -0.2507
19463SOL     OW59582   5.247   1.540   2.774  0.4667 -0.3527  0.4062
19463SOL    HW159583   5.224   1.584   2.693  0.2981 -1.9626 -0.4566
19463SOL    HW259584   5.239   1.608   2.841  0.0982  0.8751 -0.8353
19464SOL     OW59585   2.620   6.255   7.117 -0.2621  0.0063  0.4011
19464SOL    HW159586   2.660   6.310   7.050 -2.0545 -0.5572 -1.2138
19464SOL    HW259587   2.541   6.302   7.143 -0.7193 -0.8133  0.5292
19465SOL     OW59588   7.694   0.493   3.836  0.1060 -0.2580 -0.1694
19465SOL    HW159589   7.688   0.497   3.931 -0.0090 -1.0085 -0.1374
19465SOL    HW259590   7.668   0.403   3.814 -2.4994  0.6088 -1.1006
19466SOL     OW59591   7.855   1.112   6.739  0.0020 -0.3258  0.0867
19466SOL    HW159592   7.895   1.140   6.821 -1.0037 -0.3934  0.6164
19466SOL    HW259593   7.911   1.041   6.708  2.5119  2.0477 -1.1877
19467SOL     OW59594   0.217   3.843   5.942 -0.1737  0.3711 -0.3849
19467SOL    HW159595   0.145   3.877   5.889  0.4598  0.5848 -1.1370
19467SOL    HW259596   0.177   3.822   6.026 -0.9978  1.0156 -0.5974
19468SOL     OW59597   2.492   5.588   0.158 -0.0453  0.1099 -0.3916
19468SOL    HW159598   2.457   5.639   0.231 -0.4034 -1.6686  0.7407
19468SOL    HW259599   2.487   5.647   0.083 -2.7482  0.9506  0.3245
19469SOL     OW59600   5.631   2.018   8.509  0.4833 -0.1817  0.3252
19469SOL    HW159601   5.689   1.951   8.547 -0.3622 -0.8554  0.4571
19469SOL    HW259602   5.653   2.098   8.556 -1.8902 -1.3423  3.7780
19470SOL     OW59603   8.099   4.355   7.922 -0.1056 -0.4632 -0.4964
19470SOL    HW159604   8.118   4.409   7.845  1.7029 -2.1744 -1.3362
19470SOL    HW259605   8.182   4.348   7.968 -0.9094 -0.4130  1.0184
19471SOL     OW59606   7.508   5.562   2.992 -0.0740  0.4001  0.0351
19471SOL    HW159607   7.422   5.590   2.962 -0.9044 -0.6669  1.2981
19471SOL    HW259608   7.505   5.467   2.986  0.9003  0.3418  0.4034
19472SOL     OW59609   1.251   4.069   2.552  0.1615 -0.5116 -0.3056
19472SOL    HW159610   1.321   4.127   2.581  0.7363 -1.2091 -0.2807
19472SOL    HW259611   1.171   4.112   2.582  0.3992  1.3462 -2.1029
19473SOL     OW59612   3.600   2.046   7.396 -0.5766  0.4531  1.1452
19473SOL    HW159613   3.570   2.068   7.307 -0.5064 -2.1807  0.3522
19473SOL    HW259614   3.670   2.107   7.414 -0.7038  1.1638 -0.5700
19474SOL     OW59615   5.251   4.538   6.487  0.5491  0.3965 -0.9917
19474SOL    HW159616   5.177   4.582   6.447  0.1457 -0.1142 -0.8213
19474SOL    HW259617   5.317   4.535   6.418  1.1042  2.4365 -0.6170
19475SOL     OW59618   8.180   1.155   2.657  0.0075 -0.0560 -0.5041
19475SOL    HW159619   8.211   1.099   2.586 -0.8556  1.1965 -1.9165
19475SOL    HW259620   8.256   1.208   2.680  0.0656  0.1259 -1.0914
19476SOL     OW59621   5.095   3.355   4.147 -0.3826 -0.6128 -0.5992
19476SOL    HW159622   5.006   3.366   4.112 -1.1086  0.2598  1.3592
19476SOL    HW259623   5.141   3.434   4.119 -1.2298  0.5336  1.0673
19477SOL     OW59624   3.173   0.713   2.544  0.4722  0.4021  0.5415
19477SOL    HW159625   3.162   0.638   2.486  1.7546 -1.1069  2.1542
19477SOL    HW259626   3.251   0.758   2.511  0.9897 -0.2482  0.8480
19478SOL     OW59627   0.883   1.602   5.198 -0.6770 -0.4154 -0.5038
19478SOL    HW159628   0.973   1.634   5.201 -0.6374 -0.5077 -0.7415
19478SOL    HW259629   0.840   1.646   5.272 -0.5946  0.0988 -0.7558
19479SOL     OW59630   0.888   4.046   2.543 -0.0026  0.6164 -0.4306
19479SOL    HW159631   0.886   4.104   2.619  0.5818 -1.0761  0.9128
19479SOL    HW259632   0.919   4.102   2.472  1.5517  1.7416  1.0422
19480SOL     OW59633   0.794   0.447   5.926  0.5180  0.0119  0.2283
19480SOL    HW159634   0.845   0.367   5.910  1.0963  0.4908 -0.3432
19480SOL    HW259635   0.740   0.425   6.003  0.7941 -0.8662  0.1880
19481SOL     OW59636   7.795   6.643   0.626  0.1112 -0.0633  0.5536
19481SOL    HW159637   7.746   6.567   0.596 -0.0881 -0.1086  0.9819
19481SOL    HW259638   7.886   6.625   0.601 -0.0688 -0.0331 -0.1343
19482SOL     OW59639   3.608   7.722   5.571 -0.4371 -0.1922 -0.0575
19482SOL    HW159640   3.625   7.659   5.501 -0.9745  1.0264 -1.3449
19482SOL    HW259641   3.519   7.753   5.554  0.1098  1.5144  0.0248
19483SOL     OW59642   0.574   5.290   6.986 -0.1503 -0.3432  0.4271
19483SOL    HW159643   0.569   5.200   6.953  0.6065 -0.6129  1.0173
19483SOL    HW259644   0.536   5.343   6.916  0.2213 -1.0286 -0.3222
19484SOL     OW59645   7.996   8.478   2.542  0.0388 -0.1174 -0.0092
19484SOL    HW159646   8.050   8.455   2.618  2.7513 -1.1454 -2.0545
19484SOL    HW259647   8.008   8.573   2.533  3.2325 -0.5025 -1.4091
19485SOL     OW59648   0.366   8.073   0.001  0.5768 -0.2608  0.2061
19485SOL    HW159649   0.361   8.163   0.032 -1.2089 -0.1479 -0.3354
19485SOL    HW259650   0.368   8.080  -0.095  2.5439 -0.7508  0.1543
19486SOL     OW59651   5.406   4.673   2.558  0.3967  0.4499 -0.3714
19486SOL    HW159652   5.382   4.755   2.601  2.2187  2.6333 -3.1385
19486SOL    HW259653   5.327   4.647   2.510  0.2623  1.5066 -0.7474
19487SOL     OW59654   6.806   6.082   4.817  0.2238  1.0827 -0.0685
19487SOL    HW159655   6.900   6.093   4.828  0.5248 -0.5217 -0.7266
19487SOL    HW259656   6.767   6.140   4.883  1.6391  2.0962 -0.0794
19488SOL     OW59657   7.847   2.187   3.503  0.2792  0.5880  0.5324
19488SOL    HW159658   7.794   2.146   3.571  0.9284 -2.1580 -0.4805
19488SOL    HW259659   7.884   2.265   3.544 -0.6180 -0.1192  2.7977
19489SOL     OW59660   7.315   6.625   7.903 -0.3082  0.2026  0.5472
19489SOL    HW159661   7.308   6.564   7.977 -1.2495 -2.1340 -1.3229
19489SOL    HW259662   7.225   6.656   7.889 -0.3778 -0.3505 -0.3357
19490SOL     OW59663   4.322   4.677   0.806  0.3562 -0.4138  0.1675
19490SOL    HW159664   4.295   4.605   0.863 -0.0778 -1.1287 -0.8957
19490SOL    HW259665   4.418   4.676   0.810  0.3250  0.1331  1.5555
19491SOL     OW59666   6.242   3.137   3.684 -0.3550 -0.1080 -0.1188
19491SOL    HW159667   6.164   3.185   3.711 -0.4479 -0.3493  0.0488
19491SOL    HW259668   6.230   3.122   3.590  0.5214  1.7587 -0.5688
19492SOL     OW59669   5.834   5.120   0.521  0.1285 -0.2550 -0.4985
19492SOL    HW159670   5.782   5.043   0.495 -1.1833  0.3579  0.1816
19492SOL    HW259671   5.885   5.090   0.596  1.1862 -1.0074 -1.4752
19493SOL     OW59672   8.499   1.579   0.167 -0.4562 -0.5287  0.5939
19493SOL    HW159673   8.443   1.595   0.243  0.4993 -1.1478  1.4620
19493SOL    HW259674   8.462   1.634   0.098 -0.7829  0.8029  1.7712
19494SOL     OW59675   3.293   2.734   2.907  0.0496 -0.0345  0.0012
19494SOL    HW159676   3.334   2.807   2.861 -1.2298  0.9954  0.4333
19494SOL    HW259677   3.236   2.693   2.842  2.1345 -1.8888 -0.8017
19495SOL     OW59678   7.066   4.574   6.911 -0.1107 -0.2186 -0.0135
19495SOL    HW159679   6.974   4.597   6.904 -0.2244 -0.7215 -0.2529
19495SOL    HW259680   7.111   4.631   6.849 -0.0937  0.8768  0.9663
19496SOL     OW59681   4.568   8.547   4.601  0.4569  0.1597  0.0050
19496SOL    HW159682   4.517   8.592   4.669  0.4796  0.7918 -0.3934
19496SOL    HW259683   4.583   8.614   4.534  0.5569 -0.4231 -0.5576
19497SOL     OW59684   5.531   2.858   1.217  0.3821  0.5977 -0.1101
19497SOL    HW159685   5.558   2.865   1.125 -0.9461 -1.7196 -0.7516
19497SOL    HW259686   5.493   2.770   1.224  0.4683  0.7061  2.6793
19498SOL     OW59687   3.507   3.954   5.232  0.2097  0.1087 -0.5742
19498SOL    HW159688   3.581   3.938   5.173 -0.8159 -1.2510 -1.5554
19498SOL    HW259689   3.508   3.879   5.291  1.8719  1.9487  1.9733
19499SOL     OW59690   0.429   0.375   1.571 -0.1098 -0.5899  0.3371
19499SOL    HW159691   0.465   0.442   1.513 -0.0119  0.2385  1.3307
19499SOL    HW259692   0.467   0.293   1.539 -1.8959 -0.5336 -2.2754
19500SOL     OW59693   7.373   1.282   6.446  0.1304 -0.2173  0.3255
19500SOL    HW159694   7.448   1.271   6.505  0.5651 -1.5598 -0.4151
19500SOL    HW259695   7.412   1.290   6.359 -0.5631 -1.8117 -0.1818
19501SOL     OW59696   1.811   2.104   0.929 -0.3217 -0.0984  0.5063
19501SOL    HW159697   1.898   2.108   0.889 -0.7069  0.3449 -0.3229
19501SOL    HW259698   1.805   2.184   0.981  0.0173 -0.4646  1.1212
19502SOL     OW59699   5.082   2.783   3.233  0.1860 -0.2448 -0.0193
19502SOL    HW159700   5.000   2.782   3.283  1.6188 -0.4968  2.5099
19502SOL    HW259701   5.099   2.692   3.211 -0.9427 -0.0389 -1.9701
19503SOL     OW59702   1.919   2.161   1.596  0.4174  0.4975  0.3362
19503SOL    HW159703   1.849   2.221   1.621  0.5255  0.9838 -0.4969
19503SOL    HW259704   1.906   2.084   1.653 -1.5665  0.0456 -0.6250
19504SOL     OW59705   0.190   3.208   8.402 -0.1947  0.2440 -0.2791
19504SOL    HW159706   0.097   3.215   8.420 -0.2853  0.3023 -0.7572
19504SOL    HW259707   0.215   3.295   8.370  0.2797  0.5925  0.9801
19505SOL     OW59708   7.292   6.501   6.462 -0.7836  0.0678  0.6706
19505SOL    HW159709   7.360   6.454   6.414  1.7329  1.8109  2.2342
19505SOL    HW259710   7.235   6.536   6.394  0.0452 -1.1863 -0.7554
19506SOL     OW59711   3.294   4.814   7.812 -0.1039  0.3119  0.1800
19506SOL    HW159712   3.308   4.722   7.834 -0.3530 -0.0594 -1.1051
19506SOL    HW259713   3.340   4.863   7.880  1.4323 -0.7724 -0.0260
19507SOL     OW59714   7.345   1.963   1.947  0.3991  0.5438  0.2788
19507SOL    HW159715   7.284   2.021   1.993 -0.1430 -0.9377  1.5007
19507SOL    HW259716   7.372   2.013   1.870 -1.2064  1.8240  0.4996
19508SOL     OW59717   0.134   0.322   6.304  0.4869 -0.1471  0.0327
19508SOL    HW159718   0.124   0.270   6.224 -0.0804  1.1436 -0.7602
19508SOL    HW259719   0.089   0.271   6.371 -2.6386  0.5906 -1.3087
19509SOL     OW59720   6.103   5.437   2.181  0.1386  0.2819 -0.2129
19509SOL    HW159721   6.137   5.487   2.255 -1.6995  1.2459  0.0482
19509SOL    HW259722   6.068   5.357   2.220  1.3346 -0.3403 -0.3800
19510SOL     OW59723   0.286   0.055   0.331 -0.4679  1.1671  0.1328
19510SOL    HW159724   0.221   0.125   0.342  0.6137  2.1584  0.3893
19510SOL    HW259725   0.234  -0.023   0.312 -1.5845  2.6230 -3.4514
19511SOL     OW59726   7.831   0.323   1.697  0.0695  0.3403 -0.5773
19511SOL    HW159727   7.780   0.357   1.770 -0.3516  0.3586 -0.8731
19511SOL    HW259728   7.796   0.235   1.682 -0.5271  0.7040 -1.3846
19512SOL     OW59729   4.279   0.829   1.526  0.0693  0.1065 -0.0034
19512SOL    HW159730   4.258   0.740   1.553  0.2213 -0.3751 -1.3820
19512SOL    HW259731   4.224   0.845   1.449 -0.0116  1.2358  0.2621
19513SOL     OW59732   2.965   8.352   2.327  0.1055  0.1390  0.3047
19513SOL    HW159733   2.990   8.334   2.236  0.8843 -2.4597  0.9372
19513SOL    HW259734   3.000   8.278   2.376 -0.5908  1.2979  2.7021
19514SOL     OW59735   4.978   1.207   4.107  0.3449  0.4834  0.6204
19514SOL    HW159736   4.941   1.190   4.020  0.2053 -0.2735  0.8239
19514SOL    HW259737   5.051   1.267   4.090 -0.2398  1.0621  0.0863
19515SOL     OW59738   5.753   5.580   3.158  0.5370 -0.5877  0.7179
19515SOL    HW159739   5.842   5.548   3.170  0.5270 -0.3739  1.4037
19515SOL    HW259740   5.732   5.624   3.240  0.0952  0.0834  0.2619
19516SOL     OW59741   5.104   7.305   3.504  0.2993 -0.5576  0.1982
19516SOL    HW159742   5.017   7.264   3.502  0.0448 -0.0140  0.0524
19516SOL    HW259743   5.094   7.385   3.453  1.3410 -1.3401 -1.2895
19517SOL     OW59744   2.027   2.471   0.377  0.0010  0.0424 -0.1001
19517SOL    HW159745   1.988   2.452   0.292  0.3294  0.5475 -0.3641
19517SOL    HW259746   2.104   2.524   0.358  0.6161 -0.6360  0.4484
19518SOL     OW59747   5.383   6.117   5.139 -0.1808 -0.3740  0.2384
19518SOL    HW159748   5.299   6.140   5.179  0.7658  1.0585  1.4831
19518SOL    HW259749   5.359   6.063   5.063 -2.2927  1.1252 -0.2467
19519SOL     OW59750   7.168   7.343   4.708  0.0695  0.5460 -0.0561
19519SOL    HW159751   7.171   7.351   4.803  0.3811  1.0819 -0.1063
19519SOL    HW259752   7.087   7.388   4.683  0.1499  0.6819 -0.0712
19520SOL     OW59753   7.084   5.131   4.380 -0.3711  0.0370  0.2710
19520SOL    HW159754   7.090   5.059   4.442 -0.3080 -0.9353 -0.8357
19520SOL    HW259755   7.166   5.129   4.331 -0.8971  0.0205 -0.6427
19521SOL     OW59756   0.378   3.098   0.185 -0.2025 -0.2805  0.3241
19521SOL    HW159757   0.368   3.032   0.253  0.3440 -2.8635 -1.9306
19521SOL    HW259758   0.471   3.098   0.164 -0.4622 -0.1400 -0.9260
19522SOL     OW59759   7.421   6.981   4.837 -0.0766 -0.3387 -0.3376
19522SOL    HW159760   7.503   6.969   4.884  0.9699  1.1390 -1.6857
19522SOL    HW259761   7.377   7.052   4.883 -0.0953 -0.3955 -0.2669
19523SOL     OW59762   8.494   2.258   6.138 -0.1656  0.1412 -0.1847
19523SOL    HW159763   8.449   2.341   6.118 -0.7416  0.3803  1.8455
19523SOL    HW259764   8.431   2.209   6.191  1.6088  0.1465  2.0904
19524SOL     OW59765   0.368   3.115   6.183 -0.1785  0.2677  0.6422
19524SOL    HW159766   0.346   3.029   6.147 -0.3984  0.6170 -0.0611
19524SOL    HW259767   0.296   3.133   6.244  0.2292 -0.3468  1.3328
19525SOL     OW59768   8.317   2.382   7.477  0.1367 -0.0239  0.4339
19525SOL    HW159769   8.298   2.290   7.460 -0.5834 -0.0546  1.3551
19525SOL    HW259770   8.363   2.412   7.398 -1.4056 -0.6541 -0.7564
19526SOL     OW59771   6.159   2.636   8.463  0.4525 -0.1407 -0.0602
19526SOL    HW159772   6.121   2.638   8.551  0.3426 -0.8604 -0.0840
19526SOL    HW259773   6.200   2.550   8.456  1.1131  0.1965 -0.4497
19527SOL     OW59774   3.511   3.619   1.292 -0.1225  0.0317 -0.1060
19527SOL    HW159775   3.555   3.647   1.372  0.0762 -0.5772 -0.0043
19527SOL    HW259776   3.580   3.617   1.226  0.8352 -4.1517  0.7476
19528SOL     OW59777   0.408   6.251   3.561 -0.6632  0.4936  0.0609
19528SOL    HW159778   0.454   6.229   3.481 -0.3157 -0.2500  0.4554
19528SOL    HW259779   0.406   6.169   3.611  0.5751  1.3137  1.5295
19529SOL     OW59780   1.551   6.258   6.143 -0.2940 -0.0628 -0.0954
19529SOL    HW159781   1.587   6.175   6.173 -1.2291 -0.8807 -1.1380
19529SOL    HW259782   1.591   6.272   6.057 -0.3487  0.4288 -0.0450
19530SOL     OW59783   4.249   7.221   1.203 -0.5904  0.2890 -0.0748
19530SOL    HW159784   4.248   7.191   1.294 -0.6036 -1.1198 -0.5188
19530SOL    HW259785   4.206   7.151   1.154 -1.7169  1.5843 -1.0160
19531SOL     OW59786   1.867   7.597   5.827 -0.1374  0.4581  0.2070
19531SOL    HW159787   1.831   7.533   5.765  0.4954  1.2101 -0.9724
19531SOL    HW259788   1.790   7.637   5.867 -0.5609 -0.0496 -0.0881
19532SOL     OW59789   1.017   6.512   2.229  0.2317 -0.3474 -0.1618
19532SOL    HW159790   0.982   6.576   2.291  1.4349  0.0192  0.1560
19532SOL    HW259791   1.073   6.455   2.281  0.3512 -0.7464 -0.7109
19533SOL     OW59792   3.230   4.605   2.915  0.6506 -0.5354  0.2781
19533SOL    HW159793   3.201   4.533   2.971 -1.5416  0.5080  0.5779
19533SOL    HW259794   3.253   4.563   2.831 -0.9789 -1.5552  0.3080
19534SOL     OW59795   0.457   0.101   2.968 -0.3502  0.2191  0.3448
19534SOL    HW159796   0.415   0.135   3.047  1.5132  1.0392  1.0211
19534SOL    HW259797   0.521   0.038   3.000  0.7445  0.8959 -0.4467
19535SOL     OW59798   3.953   4.598   3.205 -0.1094 -0.7697 -0.5178
19535SOL    HW159799   3.889   4.577   3.137 -1.9200  2.4672 -0.0462
19535SOL    HW259800   3.901   4.642   3.273  2.4511  1.1724  0.3238
19536SOL     OW59801   2.051   3.481   6.439  0.1224  0.1801 -0.5268
19536SOL    HW159802   1.986   3.530   6.489  2.1641 -0.4099  2.9953
19536SOL    HW259803   2.053   3.395   6.479  0.3620 -1.1611 -3.1767
19537SOL     OW59804   7.890   8.006   4.454  0.5297  0.1512  0.1123
19537SOL    HW159805   7.954   8.076   4.439 -0.4944  1.5443  1.8643
19537SOL    HW259806   7.848   8.029   4.537 -2.8626 -0.2061 -1.3673
19538SOL     OW59807   1.374   1.280   5.112  0.4059  0.0270 -0.2456
19538SOL    HW159808   1.296   1.237   5.078  0.8256 -1.0827  0.1444
19538SOL    HW259809   1.418   1.213   5.163  1.7846  0.5392 -0.7152
19539SOL     OW59810   5.159   0.554   5.354  0.3336  0.2322 -0.2238
19539SOL    HW159811   5.218   0.483   5.380 -0.0446  0.0648  0.1953
19539SOL    HW259812   5.072   0.525   5.384  0.0286  0.4497 -0.8774
19540SOL     OW59813   5.047   0.099   2.235 -0.5576  0.4561  0.3969
19540SOL    HW159814   5.069   0.020   2.186 -1.3377 -0.6261  1.7146
19540SOL    HW259815   4.963   0.127   2.199 -0.4676  0.4725  0.1952
19541SOL     OW59816   5.887   0.902   0.895  0.3062  0.5640 -0.1888
19541SOL    HW159817   5.969   0.943   0.866 -0.1745  0.6328 -1.5242
19541SOL    HW259818   5.826   0.916   0.823 -0.5580 -0.5034  0.2954
19542SOL     OW59819   4.716   4.113   1.293  0.9936 -0.0060  0.4310
19542SOL    HW159820   4.784   4.048   1.311  0.6108 -0.7807 -0.8235
19542SOL    HW259821   4.750   4.194   1.330  1.7889 -0.7626  1.4105
19543SOL     OW59822   5.216   2.757   5.722  0.4595 -0.0047 -0.2654
19543SOL    HW159823   5.221   2.852   5.727 -1.5403  0.2573 -1.7288
19543SOL    HW259824   5.200   2.729   5.812 -0.5510  1.1863 -0.0472
19544SOL     OW59825   1.160   6.457   5.662  0.1729 -0.4229 -0.2652
19544SOL    HW159826   1.065   6.463   5.674  0.3390 -0.3153  1.2080
19544SOL    HW259827   1.197   6.482   5.747  1.5817  1.0599 -1.2456
19545SOL     OW59828   7.753   1.042   7.028  0.2500  0.7029  0.4334
19545SOL    HW159829   7.658   1.038   7.016  0.3167 -2.7771 -0.1255
19545SOL    HW259830   7.770   0.990   7.107  1.7019  0.8486  0.2504
19546SOL     OW59831   8.341   7.296   6.974 -0.3354  0.1928 -0.5065
19546SOL    HW159832   8.255   7.285   6.934  0.3283 -2.7418 -1.3398
19546SOL    HW259833   8.322   7.321   7.065 -1.9725  1.6564 -1.1976
19547SOL     OW59834   3.507   0.090   0.716  0.7330 -0.5933  0.4253
19547SOL    HW159835   3.432   0.049   0.672  0.4580  0.4271 -0.0874
19547SOL    HW259836   3.578   0.026   0.707  0.1294 -1.2557  0.2641
19548SOL     OW59837   3.374   3.479   5.536  0.2334  0.3984 -0.5119
19548SOL    HW159838   3.373   3.571   5.562  1.9239  0.6303 -1.1465
19548SOL    HW259839   3.428   3.476   5.457  0.8026 -1.2228 -0.1108
19549SOL     OW59840   4.932   8.096   6.732 -0.1524  0.1951 -0.2845
19549SOL    HW159841   4.847   8.082   6.775 -0.5228  1.7785 -0.4451
19549SOL    HW259842   4.989   8.129   6.802  0.5782 -1.5527 -0.0058
19550SOL     OW59843   0.611   6.135   1.286 -0.0963 -0.3470  0.4287
19550SOL    HW159844   0.517   6.115   1.285 -0.2086  0.1569  0.5345
19550SOL    HW259845   0.638   6.118   1.376 -0.4313  1.0053  0.8138
19551SOL     OW59846   0.424   4.855   6.383  0.5212 -0.5399  0.2360
19551SOL    HW159847   0.427   4.946   6.352  3.0918 -0.4403  0.5110
19551SOL    HW259848   0.373   4.809   6.317 -2.4518  1.3587  1.0134
19552SOL     OW59849   4.209   1.329   1.143  0.3546  0.1935  0.3289
19552SOL    HW159850   4.211   1.422   1.167  1.3677 -0.2701  2.2609
19552SOL    HW259851   4.198   1.283   1.226 -0.1882 -1.4243 -0.6000
19553SOL     OW59852   0.719   1.360   5.130 -0.4439 -0.4785  0.0897
19553SOL    HW159853   0.693   1.376   5.221  1.0945 -0.6529  0.5824
19553SOL    HW259854   0.802   1.406   5.120 -0.1286 -1.2384 -0.9632
19554SOL     OW59855   3.851   8.417   1.862 -0.1515  0.2267 -0.4521
19554SOL    HW159856   3.906   8.344   1.834  0.5617  1.2906 -1.9553
19554SOL    HW259857   3.787   8.377   1.921 -0.2000 -1.7454 -1.7342
19555SOL     OW59858   8.436   0.059   4.506 -0.3289 -0.4102  0.2852
19555SOL    HW159859   8.451  -0.025   4.462  3.1048  0.3584 -0.3115
19555SOL    HW259860   8.427   0.037   4.599 -0.9619 -1.5377 -0.0302
19556SOL     OW59861   1.044   6.221   2.556 -0.0089 -0.0089  0.4701
19556SOL    HW159862   1.106   6.262   2.496  0.2520 -0.9268  0.0882
19556SOL    HW259863   0.958   6.232   2.514 -0.0912  1.0428  0.8797
19557SOL     OW59864   4.550   3.875   3.151 -0.0861 -0.2712 -0.0114
19557SOL    HW159865   4.516   3.888   3.240  0.7765  0.7340  0.1908
19557SOL    HW259866   4.523   3.954   3.104 -4.1820 -2.4892 -1.9020
19558SOL     OW59867   2.184   5.744   8.074 -1.1231  0.2845 -0.1774
19558SOL    HW159868   2.223   5.716   8.157  0.4811 -1.1217 -1.3240
19558SOL    HW259869   2.161   5.836   8.088  0.5215  0.5212  1.3349
19559SOL     OW59870   3.180   0.010   6.301 -0.8285 -0.6679  0.7162
19559SOL    HW159871   3.146   0.099   6.292 -3.0773 -1.5679 -0.4259
19559SOL    HW259872   3.197   0.000   6.394 -0.6496  0.8962  0.8825
19560SOL     OW59873   6.482   0.101   5.965  0.2130 -0.1306 -0.2435
19560SOL    HW159874   6.556   0.121   6.023  0.6263 -2.3359  0.0560
19560SOL    HW259875   6.410   0.080   6.024 -0.1172  0.1459 -0.5417
19561SOL     OW59876   0.055   2.866   4.340  0.8977 -0.4391  0.0797
19561SOL    HW159877   0.108   2.786   4.335 -0.2104 -1.2260  0.4422
19561SOL    HW259878   0.092   2.923   4.273  1.0144 -1.6973 -0.9807
19562SOL     OW59879   6.269   6.857   1.319  0.2475 -0.2021  0.3664
19562SOL    HW159880   6.200   6.921   1.299  0.9757  1.1693  2.0171
19562SOL    HW259881   6.257   6.789   1.253 -2.5057  0.1146  0.3890
19563SOL     OW59882   3.106   3.521   0.621 -0.4868  0.4254  0.0207
19563SOL    HW159883   3.028   3.473   0.591  1.2240 -2.4556 -0.2291
19563SOL    HW259884   3.107   3.509   0.716  0.7506 -1.5485 -0.1813
19564SOL     OW59885   1.456   1.299   4.702 -0.4843 -0.7039  0.0886
19564SOL    HW159886   1.532   1.318   4.756 -1.6206  0.3769  1.3636
19564SOL    HW259887   1.454   1.203   4.696  0.8832 -0.7466  0.1353
19565SOL     OW59888   3.207   8.385   3.135  0.6053  0.2448 -0.1569
19565SOL    HW159889   3.257   8.440   3.074  3.3510 -2.9512 -1.0858
19565SOL    HW259890   3.249   8.398   3.220  1.4685 -0.5526 -0.4410
19566SOL     OW59891   3.927   7.066   3.493  0.4570  0.0370  0.4449
19566SOL    HW159892   4.004   7.115   3.520  0.0494  0.7119  0.4120
19566SOL    HW259893   3.951   6.974   3.504  2.5778  0.0266 -2.9714
19567SOL     OW59894   1.668   4.569   5.939 -0.4581  0.4937  0.0030
19567SOL    HW159895   1.597   4.617   5.896 -0.8059 -0.0736 -0.0639
19567SOL    HW259896   1.626   4.490   5.974  0.2366 -0.0990 -0.4790
19568SOL     OW59897   6.969   1.229   1.076  0.0940 -0.4909 -0.5633
19568SOL    HW159898   6.931   1.234   1.164  0.2837  1.5708 -0.5583
19568SOL    HW259899   6.964   1.136   1.053  0.4892 -1.1624  1.8145
19569SOL     OW59900   5.889   2.603   8.164  0.2160 -0.5327  0.2237
19569SOL    HW159901   5.931   2.526   8.203  0.1160 -1.1206 -0.7991
19569SOL    HW259902   5.953   2.674   8.177  0.1784 -0.6943  1.4381
19570SOL     OW59903   3.162   4.947   0.678 -0.0185 -0.6131 -0.2926
19570SOL    HW159904   3.242   4.933   0.627  0.1541  1.9135 -0.8383
19570SOL    HW259905   3.191   4.999   0.753 -1.0200 -0.4124 -0.0343
19571SOL     OW59906   2.863   0.922   6.742 -0.0984 -0.3181 -0.2508
19571SOL    HW159907   2.780   0.930   6.788 -0.7381 -1.9929 -1.0044
19571SOL    HW259908   2.915   0.997   6.771 -2.2735  1.4246 -0.6227
19572SOL     OW59909   4.297   3.334   4.042 -0.3570  0.2469 -0.1749
19572SOL    HW159910   4.284   3.312   3.950  1.1652  2.2434 -0.9389
19572SOL    HW259911   4.355   3.266   4.075  1.9092  1.3221 -1.6806
19573SOL     OW59912   5.439   6.523   3.919 -0.1279  0.1464  0.0367
19573SOL    HW159913   5.525   6.549   3.886  0.5020 -0.3764  1.1730
19573SOL    HW259914   5.440   6.427   3.917 -0.3272  0.1146  0.8657
19574SOL     OW59915   3.989   2.062   2.748  0.1787  0.7623 -0.0131
19574SOL    HW159916   4.028   2.131   2.695 -0.4940  1.5316  0.4867
19574SOL    HW259917   4.026   2.075   2.836  0.4318  0.1717 -0.0222
19575SOL     OW59918   8.017   0.016   0.610  0.1832  0.0466  0.5252
19575SOL    HW159919   8.053  -0.071   0.590  2.0540  1.3144 -2.1867
19575SOL    HW259920   8.044   0.033   0.700  4.3648 -0.1756 -0.5114
19576SOL     OW59921   4.907   5.333   4.063 -0.1637  0.4309  0.3341
19576SOL    HW159922   4.948   5.400   4.008  0.8054  0.3706  0.9533
19576SOL    HW259923   4.935   5.250   4.024 -1.0139  0.3747 -0.1784
19577SOL     OW59924   4.566   0.295   1.822  0.5603 -0.5175 -0.3161
19577SOL    HW159925   4.534   0.289   1.912 -0.8537  2.8393 -0.4405
19577SOL    HW259926   4.489   0.275   1.768  0.6906  0.0745 -0.7257
19578SOL     OW59927   4.252   1.884   7.685  0.1676 -0.0279  0.3902
19578SOL    HW159928   4.343   1.860   7.669  0.4789  0.2737  1.6514
19578SOL    HW259929   4.209   1.801   7.710 -0.3316 -0.5126 -1.8158
19579SOL     OW59930   3.043   5.084   3.753  0.0346 -0.0508 -0.4439
19579SOL    HW159931   2.959   5.099   3.710  0.2884 -0.5227 -1.1183
19579SOL    HW259932   3.021   5.070   3.846 -0.6424 -0.2830 -0.6377
19580SOL     OW59933   7.083   7.269   1.506  0.3106  0.5643 -0.0870
19580SOL    HW159934   7.081   7.362   1.481  0.7955  0.1250 -1.9111
19580SOL    HW259935   7.013   7.229   1.455  0.6619 -0.2164  0.0311
19581SOL     OW59936   0.247   7.932   2.446 -0.3737  0.6939  0.2192
19581SOL    HW159937   0.303   8.006   2.467 -0.1305  0.9171 -1.1279
19581SOL    HW259938   0.248   7.878   2.525  5.2805 -1.5928 -0.9321
19582SOL     OW59939   0.322   1.721   5.994  0.7680  0.1201  0.1261
19582SOL    HW159940   0.378   1.708   5.917 -0.0761 -0.4445 -0.4090
19582SOL    HW259941   0.253   1.781   5.963 -0.9711 -1.9767 -0.3241
19583SOL     OW59942   6.032   5.196   5.226  0.3172  0.6775  0.3012
19583SOL    HW159943   6.125   5.208   5.204 -0.0138  1.2530 -0.8638
19583SOL    HW259944   5.986   5.215   5.145 -0.8841  1.3053  1.1065
19584SOL     OW59945   5.733   6.538   1.600  0.0953  0.5961  0.0106
19584SOL    HW159946   5.760   6.489   1.522 -0.6486  0.2369 -0.0321
19584SOL    HW259947   5.784   6.499   1.671  0.3174  0.5013 -0.2009
19585SOL     OW59948   3.248   8.107   7.743  0.3013 -0.1539 -0.1816
19585SOL    HW159949   3.153   8.102   7.752  0.2965 -0.7096 -0.4662
19585SOL    HW259950   3.281   8.041   7.805  0.5737  1.0545  1.0003
19586SOL     OW59951   0.694   2.131   7.470  0.4291 -0.6343  0.0001
19586SOL    HW159952   0.678   2.111   7.562  1.4324  1.1506  0.6031
19586SOL    HW259953   0.742   2.055   7.437 -0.4352 -1.5416  0.7725
19587SOL     OW59954   7.386   1.824   4.533 -0.0063 -0.6808 -0.2838
19587SOL    HW159955   7.292   1.824   4.551 -0.7072  2.8542 -2.7791
19587SOL    HW259956   7.427   1.839   4.618 -2.0293  1.4079  0.4234
19588SOL     OW59957   8.496   5.120   0.474 -0.3574  0.5794  0.0717
19588SOL    HW159958   8.458   5.204   0.450  0.4485  0.7158 -0.8013
19588SOL    HW259959   8.464   5.059   0.407  1.3738  0.8241 -1.0592
19589SOL     OW59960   6.338   4.671   1.841 -0.4144  0.7535  0.2449
19589SOL    HW159961   6.281   4.678   1.918 -0.3378  2.8999  0.1765
19589SOL    HW259962   6.281   4.689   1.767 -0.5778 -1.7326 -0.2929
19590SOL     OW59963   3.852   0.436   1.785  0.1819  0.5810  0.5129
19590SOL    HW159964   3.763   0.457   1.756 -0.2859 -2.4996 -0.6272
19590SOL    HW259965   3.907   0.455   1.710 -0.3359 -2.5051 -0.7843
19591SOL     OW59966   1.881   1.198   5.598  0.5412 -0.1585 -0.7192
19591SOL    HW159967   1.797   1.160   5.573 -0.3566  0.6911  0.8523
19591SOL    HW259968   1.903   1.258   5.527 -0.3267 -0.1700 -1.0011
19592SOL     OW59969   5.906   1.200   7.279 -0.2365  0.0981 -0.2222
19592SOL    HW159970   5.892   1.131   7.214  0.7899  0.1678 -0.5333
19592SOL    HW259971   5.926   1.278   7.227 -2.6222  0.9841  0.0645
19593SOL     OW59972   8.452   7.392   5.732  0.2619  0.6131 -0.0934
19593SOL    HW159973   8.360   7.365   5.724  0.7221 -0.8972 -0.7069
19593SOL    HW259974   8.470   7.388   5.825  0.3454 -1.5298 -0.1443
19594SOL     OW59975   0.833   4.485   6.662 -0.6540  0.2073  0.2498
19594SOL    HW159976   0.761   4.458   6.720 -0.4935  1.3715  1.0182
19594SOL    HW259977   0.793   4.549   6.603  0.2487  2.9175  2.3820
19595SOL     OW59978   7.656   7.717   1.360 -0.0246  1.3008 -0.0667
19595SOL    HW159979   7.579   7.766   1.388 -0.3920 -0.2026  1.7708
19595SOL    HW259980   7.646   7.709   1.265 -2.4819  0.6412  0.1711
19596SOL     OW59981   2.196   6.958   4.360  0.0602  0.1319  0.8857
19596SOL    HW159982   2.255   6.894   4.320  0.3223 -0.1284  1.6557
19596SOL    HW259983   2.247   7.038   4.364  0.6302 -0.2633  2.1546
19597SOL     OW59984   2.715   8.181   4.448  0.3366 -0.2713  0.2927
19597SOL    HW159985   2.658   8.228   4.387  0.9916  0.2334  0.0587
19597SOL    HW259986   2.792   8.158   4.397  1.3007  0.9548  1.1376
19598SOL     OW59987   5.629   1.956   1.469 -0.2398 -0.3343  0.2494
19598SOL    HW159988   5.538   1.979   1.489 -0.2355 -1.0280  1.1076
19598SOL    HW259989   5.677   2.038   1.481 -0.6354 -0.1470  0.6046
19599SOL     OW59990   2.927   0.193   3.665  0.3494 -0.0796  0.6675
19599SOL    HW159991   2.936   0.215   3.758  0.5878 -1.3656  0.9697
19599SOL    HW259992   2.858   0.251   3.633 -0.5512 -0.4006  1.9307
19600SOL     OW59993   7.071   0.404   3.888  0.0602  0.3740  0.2477
19600SOL    HW159994   7.033   0.338   3.829  0.9041  0.5411 -0.5056
19600SOL    HW259995   7.159   0.371   3.907 -0.3455  0.1157  1.7811
19601SOL     OW59996   3.255   6.045   2.965 -0.4440 -0.3934  0.0337
19601SOL    HW159997   3.275   5.987   3.038 -0.3005  0.0630  0.3552
19601SOL    HW259998   3.340   6.069   2.928 -0.5410 -2.0937 -1.4593
19602SOL     OW59999   2.347   2.264   5.026  0.1436 -0.1545 -0.0347
19602SOL    HW160000   2.386   2.289   4.942 -0.1158 -0.6352 -0.3012
19602SOL    HW260001   2.290   2.337   5.049  0.7613  0.3066  0.0844
19603SOL     OW60002   8.015   6.235   7.507  0.8474 -0.5051  0.1502
19603SOL    HW160003   7.941   6.181   7.479  1.3575 -1.6052  0.8775
19603SOL    HW260004   8.053   6.267   7.425 -1.1751  1.1847 -0.2401
19604SOL     OW60005   6.506   1.468   3.550 -0.0602  0.0635  0.0158
19604SOL    HW160006   6.492   1.400   3.617 -0.0198 -0.4784 -0.5194
19604SOL    HW260007   6.550   1.422   3.479 -2.0751  0.1187 -1.3218
19605SOL     OW60008   7.331   4.516   6.282 -0.3599 -0.2048 -0.1392
19605SOL    HW160009   7.248   4.563   6.278 -0.3105 -0.1330 -0.3133
19605SOL    HW260010   7.378   4.556   6.355 -0.3714 -0.0725 -0.2042
19606SOL     OW60011   7.364   0.117   7.005  0.3680 -0.0457 -0.3940
19606SOL    HW160012   7.410   0.040   6.973  0.1054 -0.5988  0.5072
19606SOL    HW260013   7.432   0.182   7.022  0.5783 -0.0294 -1.2677
19607SOL     OW60014   4.836   1.727   4.876  0.1801 -0.3179  0.6315
19607SOL    HW160015   4.866   1.817   4.891 -2.0076  0.4383  0.7006
19607SOL    HW260016   4.907   1.673   4.912  1.5591  1.3519  0.5616
19608SOL     OW60017   8.380   0.487   3.934  0.2227 -0.3558 -0.5481
19608SOL    HW160018   8.447   0.539   3.977 -0.8346  0.9418 -0.3905
19608SOL    HW260019   8.419   0.400   3.925  1.0720 -0.2661  1.6018
19609SOL     OW60020   0.687   2.305   3.725  0.2214 -0.0741 -0.1352
19609SOL    HW160021   0.607   2.310   3.673 -0.9629 -0.7171  1.5216
19609SOL    HW260022   0.725   2.220   3.703  0.0382 -0.0871 -0.3992
19610SOL     OW60023   4.440   4.347   7.692 -0.0587  0.0160  0.3658
19610SOL    HW160024   4.535   4.334   7.691 -0.1954 -1.2612 -2.1593
19610SOL    HW260025   4.406   4.271   7.740  0.0089 -2.0924 -2.6658
19611SOL     OW60026   7.913   4.406   2.898  1.0386  0.0077 -0.1003
19611SOL    HW160027   7.917   4.492   2.856  3.5121 -0.4291 -0.9843
19611SOL    HW260028   7.942   4.421   2.988 -4.1923  0.9315  1.7763
19612SOL     OW60029   4.528   6.495   3.924 -0.2654  0.3798  0.3908
19612SOL    HW160030   4.577   6.546   3.859 -0.2883  1.2290  1.0168
19612SOL    HW260031   4.552   6.534   4.008 -0.9808 -0.0698  0.8186
19613SOL     OW60032   3.941   7.052   6.577 -0.4495 -0.1904 -0.3487
19613SOL    HW160033   3.947   7.096   6.662  1.8433 -1.1397  0.0375
19613SOL    HW260034   4.014   7.088   6.526  0.1397 -1.9226 -0.7748
19614SOL     OW60035   6.471   5.784   0.390 -0.0880 -0.8719 -0.4441
19614SOL    HW160036   6.543   5.763   0.330  0.6891  0.2978  0.0492
19614SOL    HW260037   6.423   5.855   0.347  0.6414  0.1662  0.4268
19615SOL     OW60038   6.531   4.030   6.975  0.2246 -0.0237 -0.3513
19615SOL    HW160039   6.553   4.026   6.882  0.1365  0.1441 -0.3807
19615SOL    HW260040   6.589   4.098   7.011  0.4774 -0.3069 -0.2201
19616SOL     OW60041   2.804   2.653   7.120 -0.6035  0.8409 -0.0860
19616SOL    HW160042   2.839   2.737   7.093 -1.4159  0.4409 -2.6357
19616SOL    HW260043   2.739   2.631   7.053  0.8434 -2.6447 -0.5560
19617SOL     OW60044   0.808   2.557   3.609 -0.3642 -0.2791 -0.1956
19617SOL    HW160045   0.724   2.573   3.651 -0.5180  1.2747 -1.0399
19617SOL    HW260046   0.833   2.641   3.570  0.6001 -1.2027 -1.6961
19618SOL     OW60047   5.223   2.919   2.201 -0.2308 -0.0032  0.4031
19618SOL    HW160048   5.262   2.832   2.207 -0.7974 -0.3468 -0.6877
19618SOL    HW260049   5.141   2.912   2.251  0.6320  0.4786  1.9647
19619SOL     OW60050   7.493   1.595   6.186 -0.0170 -0.7383 -0.2762
19619SOL    HW160051   7.437   1.625   6.258 -0.1831 -1.7301  0.0239
19619SOL    HW260052   7.495   1.669   6.125 -0.5261 -0.1768  0.3686
19620SOL     OW60053   4.327   8.502   4.393  0.2788  0.1829  0.5876
19620SOL    HW160054   4.341   8.588   4.433 -0.3387  0.3211  0.5143
19620SOL    HW260055   4.390   8.498   4.321  0.4088  0.5079  0.6814
19621SOL     OW60056   0.455   3.450   1.203 -0.4013 -0.2067  0.3750
19621SOL    HW160057   0.425   3.384   1.140  1.2260  0.9201 -1.7116
19621SOL    HW260058   0.517   3.403   1.259  0.5079 -0.5738 -0.8935
19622SOL     OW60059   4.389   2.878   3.488  0.5128 -0.1260 -0.2791
19622SOL    HW160060   4.325   2.891   3.418  0.1191 -0.8830 -0.0704
19622SOL    HW260061   4.462   2.935   3.465 -1.1514  2.6586  0.6581
19623SOL     OW60062   2.394   4.451   8.102  0.4860 -0.1962  0.0423
19623SOL    HW160063   2.301   4.443   8.124  0.7662  0.8754  1.7516
19623SOL    HW260064   2.422   4.361   8.087 -0.2444 -0.8529  2.1886
19624SOL     OW60065   0.507   2.296   6.479 -0.0923  0.2357 -0.5130
19624SOL    HW160066   0.440   2.228   6.484  0.8940 -0.9635 -2.5984
19624SOL    HW260067   0.482   2.350   6.404 -1.4038  2.9062  1.6645
19625SOL     OW60068   4.822   2.639   0.527 -0.1807  0.0117  0.3808
19625SOL    HW160069   4.751   2.703   0.519  2.0758  2.9933  2.0598
19625SOL    HW260070   4.876   2.672   0.600  1.4969 -3.5470  0.9582
19626SOL     OW60071   3.718   2.076   0.856  0.0167  0.2617  0.0193
19626SOL    HW160072   3.718   2.090   0.761  0.5283  0.4658  0.0468
19626SOL    HW260073   3.751   2.158   0.892 -0.6981  0.3887  0.4097
19627SOL     OW60074   1.434   0.452   5.524  0.3165 -0.1581 -0.3639
19627SOL    HW160075   1.469   0.412   5.604  0.4493 -0.6270 -0.6515
19627SOL    HW260076   1.507   0.504   5.490  0.2829 -0.0138 -0.2134
19628SOL     OW60077   7.699   3.815   5.255 -0.0705 -0.3706 -0.0036
19628SOL    HW160078   7.649   3.889   5.220  0.0353 -0.2836  0.0279
19628SOL    HW260079   7.669   3.740   5.205 -1.3495 -0.5933  1.0468
19629SOL     OW60080   7.265   5.085   7.016  0.3620  0.1328 -0.2990
19629SOL    HW160081   7.242   5.102   6.924  0.5354  1.0020 -0.1903
19629SOL    HW260082   7.190   5.119   7.066 -0.6301 -2.0493 -0.1702
19630SOL     OW60083   0.457   2.658   0.250 -0.1159 -0.0039  0.2509
19630SOL    HW160084   0.380   2.606   0.274  0.5669 -0.3524  1.8147
19630SOL    HW260085   0.439   2.686   0.160 -2.9055  1.4898  1.1508
19631SOL     OW60086   7.049   8.368   1.758  0.1722 -0.2427 -0.1541
19631SOL    HW160087   7.074   8.314   1.683  0.2484 -1.2197  0.5464
19631SOL    HW260088   7.096   8.329   1.832  0.3195  0.8724  0.3625
19632SOL     OW60089   7.477   4.914   5.853 -0.2229  0.8138 -0.5514
19632SOL    HW160090   7.508   4.998   5.889 -1.5234  0.6160  1.1835
19632SOL    HW260091   7.427   4.938   5.775  1.5606  1.3857 -1.5831
19633SOL     OW60092   4.567   1.384   1.990 -0.6185 -0.3960 -0.1714
19633SOL    HW160093   4.572   1.297   1.951  1.7845 -0.3931 -0.0679
19633SOL    HW260094   4.620   1.439   1.932  0.5108  0.2623  1.3814
19634SOL     OW60095   5.934   1.127   2.961 -0.4097 -0.1276  0.0303
19634SOL    HW160096   5.901   1.157   2.876 -0.7414 -2.2123 -0.6537
19634SOL    HW260097   5.948   1.033   2.948  0.1740 -0.3604  2.1020
19635SOL     OW60098   4.005   5.455   1.986  0.0305 -0.0333 -0.3113
19635SOL    HW160099   3.915   5.467   2.016  0.1789  0.8000 -0.1822
19635SOL    HW260100   4.005   5.487   1.895 -0.5335 -2.9810 -1.4864
19636SOL     OW60101   8.325   5.059   6.234  0.2102 -0.6030 -0.5835
19636SOL    HW160102   8.338   5.153   6.249  0.0671 -0.5171 -0.9979
19636SOL    HW260103   8.249   5.037   6.289  1.4066 -0.8892  1.0312
19637SOL     OW60104   1.739   4.116   6.971  0.3360  0.0142  0.0894
19637SOL    HW160105   1.659   4.122   6.919  0.5415  0.4372 -0.1818
19637SOL    HW260106   1.718   4.054   7.040  0.3615 -1.3264 -1.0616
19638SOL     OW60107   7.490   0.468   2.582  0.3952  0.4980 -0.2479
19638SOL    HW160108   7.545   0.407   2.534  0.7558  0.3107  0.3944
19638SOL    HW260109   7.419   0.414   2.617 -1.8920  1.1380 -3.4286
19639SOL     OW60110   5.126   2.056   2.890 -0.0871 -0.3571  0.3299
19639SOL    HW160111   5.072   2.043   2.812 -1.3640  1.9542  0.7148
19639SOL    HW260112   5.067   2.100   2.952  1.5640  0.0381  1.6896
19640SOL     OW60113   6.594   4.822   6.650 -0.1721 -0.4606  0.1114
19640SOL    HW160114   6.524   4.821   6.715  0.0615 -0.3181  0.3679
19640SOL    HW260115   6.613   4.729   6.634 -0.4630 -0.4999 -0.0081
19641SOL     OW60116   7.380   5.014   7.602 -0.4370 -0.1049  0.4222
19641SOL    HW160117   7.312   5.077   7.578  0.4489  1.0426  0.8501
19641SOL    HW260118   7.393   4.961   7.523 -0.3570  1.0303 -0.3506
19642SOL     OW60119   6.946   1.183   2.582  0.3867 -0.2101  0.2580
19642SOL    HW160120   6.986   1.156   2.499 -1.5159 -3.3740  0.2251
19642SOL    HW260121   6.904   1.266   2.562 -2.3949 -2.1336 -2.9160
19643SOL     OW60122   5.375   5.692   0.776  0.1648  0.2817 -0.0378
19643SOL    HW160123   5.297   5.678   0.830  0.9899  0.9230  1.3921
19643SOL    HW260124   5.384   5.612   0.724 -2.0870  0.6700 -1.1053
19644SOL     OW60125   0.628   5.239   1.148  0.4984 -0.3276 -0.1755
19644SOL    HW160126   0.608   5.162   1.202  2.8215 -0.3237  0.7866
19644SOL    HW260127   0.637   5.311   1.210 -0.0733  0.4056 -0.9168
19645SOL     OW60128   4.261   5.462   5.284 -0.1217  0.4825  0.1438
19645SOL    HW160129   4.212   5.380   5.295 -0.5539  0.5994 -0.7214
19645SOL    HW260130   4.313   5.470   5.363 -1.6411  0.4333  1.1997
19646SOL     OW60131   7.916   5.654   6.343 -0.0386 -0.4973  0.0993
19646SOL    HW160132   7.839   5.617   6.300  0.3177 -0.2181 -0.8019
19646SOL    HW260133   7.979   5.666   6.272 -0.6617  3.3155 -0.0339
19647SOL     OW60134   4.909   2.073   2.716  0.3280  0.0959  0.6653
19647SOL    HW160135   4.817   2.072   2.743  0.5897 -0.3361  1.5959
19647SOL    HW260136   4.908   2.049   2.623 -0.6715  2.3606  0.0372
19648SOL     OW60137   2.198   8.087   2.948  0.0732 -0.0293  0.0267
19648SOL    HW160138   2.141   8.064   3.021  1.0869  0.7516  1.1057
19648SOL    HW260139   2.222   8.003   2.909 -0.9991 -0.4194  0.1684
19649SOL     OW60140   5.257   5.729   4.806 -0.0517 -0.1176 -0.0120
19649SOL    HW160141   5.269   5.634   4.802 -2.9392 -0.5851 -0.1693
19649SOL    HW260142   5.289   5.761   4.722 -0.1740 -1.1508 -0.4674
19650SOL     OW60143   2.866   7.157   1.343 -0.3525  0.3503 -0.1230
19650SOL    HW160144   2.873   7.088   1.277  2.8245  1.8388 -1.5452
19650SOL    HW260145   2.822   7.115   1.417 -1.4397 -2.2185 -2.0653
19651SOL     OW60146   7.671   1.130   4.267 -0.1072 -0.4074  0.2832
19651SOL    HW160147   7.588   1.115   4.313  0.2935  0.7208  1.4665
19651SOL    HW260148   7.708   1.207   4.311  1.2166 -0.4443 -0.7163
19652SOL     OW60149   2.761   0.519   2.709 -0.2050  0.2293 -0.3757
19652SOL    HW160150   2.846   0.493   2.746 -0.0733  1.1410 -0.0086
19652SOL    HW260151   2.697   0.467   2.758  0.1006 -0.0326 -0.2485
19653SOL     OW60152   3.214   4.918   0.178 -0.0808  0.2171 -0.3799
19653SOL    HW160153   3.118   4.921   0.178 -0.0695  1.9713 -0.2123
19653SOL    HW260154   3.235   4.826   0.170 -1.7893 -0.1937 -0.6676
19654SOL     OW60155   6.925   0.576   6.331  0.4824 -0.0769  0.6783
19654SOL    HW160156   6.894   0.666   6.329 -1.0136 -0.5697 -2.0521
19654SOL    HW260157   6.909   0.547   6.421 -1.9337  1.4379  0.8186
19655SOL     OW60158   4.804   1.295   1.120  0.1197  0.1187  0.2441
19655SOL    HW160159   4.777   1.205   1.138 -1.0194  0.4525  0.2293
19655SOL    HW260160   4.899   1.288   1.105 -0.0612 -1.1873 -0.4895
19656SOL     OW60161   7.136   2.612   6.483  0.0964 -0.1149  0.1229
19656SOL    HW160162   7.164   2.567   6.403  1.4694 -2.0441  1.6062
19656SOL    HW260163   7.099   2.543   6.538 -0.6459  1.1453  1.2510
19657SOL     OW60164   4.612   2.586   3.474 -0.2489  0.5086  0.2339
19657SOL    HW160165   4.561   2.634   3.409 -1.5927  0.3757  1.1349
19657SOL    HW260166   4.574   2.612   3.558  1.0257  0.2031  0.9363
19658SOL     OW60167   7.039   2.549   4.284  0.1501  0.0670  0.0149
19658SOL    HW160168   7.042   2.539   4.189  0.2003  1.2045 -0.1236
19658SOL    HW260169   7.075   2.468   4.318 -0.3351 -0.5659 -0.9259
19659SOL     OW60170   1.538   3.245   2.307  0.1752 -0.2097 -0.2373
19659SOL    HW160171   1.577   3.261   2.221 -0.0646 -0.3679 -0.3771
19659SOL    HW260172   1.458   3.196   2.288 -0.2474  0.3696  0.0266
19660SOL     OW60173   8.261   0.672   7.341 -0.1854 -0.2640 -0.3051
19660SOL    HW160174   8.299   0.689   7.254  0.7191  0.7331  0.2584
19660SOL    HW260175   8.173   0.709   7.336 -1.0299 -2.2830 -1.5138
19661SOL     OW60176   0.289   1.069   1.348 -0.3619  0.0193  0.2704
19661SOL    HW160177   0.354   1.009   1.311 -1.4363 -0.6647 -0.5736
19661SOL    HW260178   0.205   1.025   1.333 -1.0574  1.0864  0.9341
19662SOL     OW60179   3.967   7.232   6.022  0.5593 -0.1012  0.6564
19662SOL    HW160180   4.008   7.167   5.965 -0.2033 -0.0765  0.0721
19662SOL    HW260181   3.885   7.192   6.050  0.0799  0.6053  0.2867
19663SOL     OW60182   3.843   2.357   1.985 -0.1848  0.1300  0.0113
19663SOL    HW160183   3.747   2.355   1.987 -0.1624 -0.6032  0.4373
19663SOL    HW260184   3.866   2.299   1.913 -0.1220  2.9124 -2.4285
19664SOL     OW60185   7.971   1.072   4.342 -0.4088  0.2914 -0.1453
19664SOL    HW160186   7.960   1.167   4.343 -1.8395  0.1868 -1.5218
19664SOL    HW260187   7.917   1.041   4.415  1.9985  0.6143  1.9183
19665SOL     OW60188   2.055   5.330   6.458 -0.8335 -0.2502  0.1610
19665SOL    HW160189   2.088   5.409   6.500 -2.3409  0.6044 -0.1748
19665SOL    HW260190   1.972   5.357   6.417  0.0020 -1.3066 -2.4379
19666SOL     OW60191   3.169   3.291   3.423 -0.3258  0.1612 -0.1519
19666SOL    HW160192   3.220   3.318   3.500  0.3046 -0.8698 -0.1846
19666SOL    HW260193   3.100   3.236   3.459 -1.0243  1.0082 -0.1758
19667SOL     OW60194   0.547   5.855   4.522  0.0705 -0.8130 -0.5334
19667SOL    HW160195   0.536   5.894   4.609 -0.7966  0.1729 -1.0701
19667SOL    HW260196   0.517   5.764   4.532  1.3123 -1.1448  0.5231
19668SOL     OW60197   6.917   7.444   3.425 -0.0973  0.5009  0.0252
19668SOL    HW160198   6.918   7.465   3.518  1.7649  1.0501 -0.0770
19668SOL    HW260199   6.876   7.520   3.383 -1.5030 -0.0136  0.4230
19669SOL     OW60200   4.106   1.850   0.977 -0.0156  0.1976 -0.5525
19669SOL    HW160201   4.042   1.821   0.912  0.2632 -1.1254 -0.2545
19669SOL    HW260202   4.056   1.855   1.059  0.0418  0.1188 -0.5126
19670SOL     OW60203   0.921   5.036   2.356 -0.9463  0.7060 -0.4990
19670SOL    HW160204   0.861   5.110   2.367 -1.5504 -0.1004  2.2908
19670SOL    HW260205   0.957   5.020   2.443  0.0791 -1.5410 -1.2492
19671SOL     OW60206   4.289   0.677   7.039  0.1339 -0.0153 -0.0319
19671SOL    HW160207   4.199   0.665   7.008 -0.2586  0.9955  0.6526
19671SOL    HW260208   4.322   0.588   7.050 -1.2941 -0.4547  1.1297
19672SOL     OW60209   4.942   4.971   5.999  0.8992  0.5662 -0.2854
19672SOL    HW160210   4.984   4.897   6.043  0.9094  0.2008 -0.9072
19672SOL    HW260211   5.014   5.032   5.980  1.2291 -0.2045 -1.6431
19673SOL     OW60212   3.955   6.865   8.438  1.0930  0.0843  0.7903
19673SOL    HW160213   3.887   6.849   8.374  0.0013 -0.1211  1.9663
19673SOL    HW260214   4.024   6.910   8.389  1.2651 -1.9830 -1.0262
19674SOL     OW60215   1.450   1.136   6.283  0.3738  0.0176  0.2575
19674SOL    HW160216   1.380   1.156   6.221  0.0681 -1.0234  0.2424
19674SOL    HW260217   1.522   1.195   6.259 -0.2593  0.6252 -0.1552
19675SOL     OW60218   4.311   2.220   7.485 -0.2636  0.1875  0.3420
19675SOL    HW160219   4.402   2.216   7.515 -0.4174 -0.3568  0.7577
19675SOL    HW260220   4.315   2.192   7.394 -0.1253 -0.8189  0.6345
19676SOL     OW60221   0.440   4.024   6.711 -0.0929  0.3260 -0.3444
19676SOL    HW160222   0.451   3.946   6.657 -1.4137 -0.4859  0.4980
19676SOL    HW260223   0.419   3.991   6.798  1.3550  1.6160  0.5448
19677SOL     OW60224   0.612   3.952   7.657 -0.2433  0.3307 -0.2451
19677SOL    HW160225   0.633   4.045   7.669 -1.5504  0.8088 -1.4575
19677SOL    HW260226   0.672   3.922   7.589  0.3407  0.2131  0.3133
19678SOL     OW60227   4.057   0.975   8.085 -0.1068 -0.1418  0.1393
19678SOL    HW160228   4.096   0.982   8.172 -2.1747  3.6096  0.9742
19678SOL    HW260229   4.127   0.937   8.031  2.1813 -0.1819  2.8675
19679SOL     OW60230   6.691   1.693   6.928 -0.4393 -0.5773  0.4314
19679SOL    HW160231   6.731   1.638   6.859 -1.2861 -0.8381  0.1374
19679SOL    HW260232   6.617   1.735   6.884  0.0943  0.6750  0.7071
19680SOL     OW60233   7.648   1.517   3.261 -0.5714  0.5582  0.0047
19680SOL    HW160234   7.626   1.611   3.260 -0.1424  0.6757  0.8938
19680SOL    HW260235   7.699   1.504   3.182  1.6992  1.6809  1.1958
19681SOL     OW60236   2.219   0.268   4.698  0.0126 -0.4035 -0.0555
19681SOL    HW160237   2.202   0.231   4.784  1.7369  0.4135  0.6900
19681SOL    HW260238   2.138   0.313   4.675 -0.4219 -0.4787  1.2322
19682SOL     OW60239   2.737   8.098   0.083  0.4757 -0.5797 -0.0636
19682SOL    HW160240   2.716   8.047   0.161  0.5362  1.1059  1.1154
19682SOL    HW260241   2.756   8.186   0.117 -2.2731  0.9767 -2.1855
19683SOL     OW60242   5.048   5.204   2.607  1.2219  0.1291  0.0861
19683SOL    HW160243   5.097   5.266   2.660  1.9944  0.0029 -0.4604
19683SOL    HW260244   5.057   5.237   2.517  1.3398 -0.5617 -0.1674
19684SOL     OW60245   6.772   1.207   2.068  0.1924  0.1446 -0.1392
19684SOL    HW160246   6.807   1.122   2.040 -1.3166 -1.1047  1.5250
19684SOL    HW260247   6.736   1.190   2.155 -1.6074  2.1095 -0.4255
19685SOL     OW60248   5.353   1.080   2.277 -0.3104  0.1767  0.9483
19685SOL    HW160249   5.346   1.174   2.263  0.0658 -0.1136 -1.8057
19685SOL    HW260250   5.263   1.052   2.294 -0.7622  0.8187 -0.2297
19686SOL     OW60251   2.143   4.579   1.953 -0.9655  0.2023  0.3134
19686SOL    HW160252   2.082   4.571   1.879 -0.4063 -1.2601 -0.0350
19686SOL    HW260253   2.221   4.619   1.915 -0.5778 -0.7948  0.0150
19687SOL     OW60254   8.081   2.084   2.326 -0.7225  0.0163 -0.0101
19687SOL    HW160255   8.076   2.009   2.267 -0.5032  0.4503 -0.5896
19687SOL    HW260256   8.018   2.147   2.291 -1.0426  0.0346  0.5832
19688SOL     OW60257   4.491   5.063   6.553  0.3422 -0.0144 -0.4072
19688SOL    HW160258   4.442   5.125   6.499  1.3695  0.7942 -0.4455
19688SOL    HW260259   4.555   5.117   6.600 -0.0372 -0.8008  1.0597
19689SOL     OW60260   4.610   1.806   8.142  0.2074  0.4334 -0.3518
19689SOL    HW160261   4.648   1.741   8.083  1.9047  1.4011 -0.3766
19689SOL    HW260262   4.685   1.846   8.187 -0.8948  1.2508  0.8533
19690SOL     OW60263   1.650   6.546   1.755  0.3170  0.2835 -0.0431
19690SOL    HW160264   1.599   6.606   1.809  0.0226  1.1406 -1.2378
19690SOL    HW260265   1.718   6.600   1.716 -0.1962 -0.0342 -1.4570
19691SOL     OW60266   7.499   2.277   4.281  0.0736  0.0430 -0.0574
19691SOL    HW160267   7.462   2.267   4.369 -0.1790  0.8819 -0.0617
19691SOL    HW260268   7.508   2.372   4.269 -1.3527  0.0439 -1.5265
19692SOL     OW60269   1.548   5.535   6.524  0.3717  0.0126  0.1634
19692SOL    HW160270   1.498   5.524   6.444 -0.8848 -1.4163  1.0911
19692SOL    HW260271   1.558   5.446   6.559  0.2038  0.6699  1.9788
19693SOL     OW60272   1.513   7.906   0.868 -0.1148  0.4323 -0.2482
19693SOL    HW160273   1.543   7.886   0.957  0.7936  1.9852 -0.1779
19693SOL    HW260274   1.418   7.905   0.874 -0.3047 -4.0948 -0.3497
19694SOL     OW60275   0.252   2.634   4.484  0.0445 -0.1938  0.8715
19694SOL    HW160276   0.311   2.664   4.554  0.9858  0.4896 -0.1851
19694SOL    HW260277   0.230   2.544   4.509  0.9293 -0.2094  1.6914
19695SOL     OW60278   3.646   5.634   6.079  0.1888  0.1691 -0.0473
19695SOL    HW160279   3.676   5.718   6.045 -1.1922  0.0223 -1.7753
19695SOL    HW260280   3.723   5.578   6.077  0.5307  0.6449 -1.4951
19696SOL     OW60281   5.772   3.164   7.836  0.3580 -0.4381 -0.0641
19696SOL    HW160282   5.718   3.239   7.813  0.8404 -0.0906 -0.0670
19696SOL    HW260283   5.830   3.151   7.761  0.8975 -0.2434  0.3084
19697SOL     OW60284   4.794   7.545   5.761  0.5469 -0.4797 -0.1024
19697SOL    HW160285   4.809   7.514   5.851 -0.2424 -1.1896 -0.1957
19697SOL    HW260286   4.843   7.484   5.706 -0.4331 -1.1646 -0.2456
19698SOL     OW60287   5.842   6.648   2.431  0.1085  0.5172 -0.0739
19698SOL    HW160288   5.833   6.649   2.527 -1.2545 -3.3783  0.0300
19698SOL    HW260289   5.753   6.660   2.398  0.5967  2.0280 -0.9367
19699SOL     OW60290   6.190   7.310   4.882  0.4646 -0.0408 -0.8855
19699SOL    HW160291   6.203   7.252   4.807 -1.2739 -0.7741 -0.6825
19699SOL    HW260292   6.217   7.396   4.851  0.3527 -0.4396 -2.1602
19700SOL     OW60293   3.946   2.783   3.910  0.1219 -0.2328  0.1759
19700SOL    HW160294   4.023   2.727   3.898 -0.0575 -0.0948 -2.1198
19700SOL    HW260295   3.946   2.805   4.003  2.2836 -1.0429  0.4203
19701SOL     OW60296   6.091   2.056   5.003  0.0552 -0.0344  0.1570
19701SOL    HW160297   6.094   1.973   4.956  0.6817 -0.6382  1.2354
19701SOL    HW260298   6.106   2.033   5.094 -3.8646  0.7710  1.1656
19702SOL     OW60299   1.574   8.293   6.653 -0.0007  0.0885 -0.3705
19702SOL    HW160300   1.528   8.359   6.601 -0.8235 -1.9080 -2.3846
19702SOL    HW260301   1.650   8.270   6.599  0.4509 -0.3492  0.4408
19703SOL     OW60302   3.741   7.585   0.919 -0.2192  0.2053 -0.1760
19703SOL    HW160303   3.730   7.632   0.836  0.0213  0.6804  0.0539
19703SOL    HW260304   3.834   7.593   0.938 -0.2210 -0.1757 -0.0198
19704SOL     OW60305   3.491   2.017   5.862  0.3375 -0.4426  0.0598
19704SOL    HW160306   3.486   2.080   5.789  0.3235 -0.2888  0.1930
19704SOL    HW260307   3.470   2.069   5.939 -1.0575 -0.8943  0.0241
19705SOL     OW60308   1.969   0.177   3.603 -0.2429 -0.0858  0.1995
19705SOL    HW160309   2.028   0.111   3.640 -0.9399  0.3612  2.2713
19705SOL    HW260310   1.882   0.141   3.618 -0.6331  1.2697  1.3967
19706SOL     OW60311   6.059   1.105   5.793  0.2395 -0.3856  0.0845
19706SOL    HW160312   5.977   1.130   5.836 -0.1627  0.2302 -0.9968
19706SOL    HW260313   6.092   1.032   5.846 -1.5909 -1.4239 -0.1116
19707SOL     OW60314   2.076   1.458   8.261  0.2544 -0.1355 -0.2397
19707SOL    HW160315   2.115   1.545   8.246  1.9914 -0.8088  0.1155
19707SOL    HW260316   2.151   1.399   8.265 -0.9235 -1.7408 -0.8880
19708SOL     OW60317   0.119   2.565   4.276 -0.5568  0.2230  0.2727
19708SOL    HW160318   0.053   2.525   4.333  0.0245 -2.2028 -0.6188
19708SOL    HW260319   0.186   2.597   4.335 -0.6529 -0.9396  1.0437
19709SOL     OW60320   5.583   2.501   4.425 -0.1524 -0.1743  0.4713
19709SOL    HW160321   5.558   2.498   4.333  2.7031  0.8141 -0.4286
19709SOL    HW260322   5.578   2.410   4.455  0.8953 -0.8354 -1.2612
19710SOL     OW60323   3.927   6.534   4.713 -0.2659  0.0277  0.3186
19710SOL    HW160324   3.919   6.561   4.621 -0.7465  1.5056  0.7694
19710SOL    HW260325   4.014   6.563   4.739 -0.0304 -0.6203  0.2692
19711SOL     OW60326   4.161   4.153   5.355 -0.4201  0.3972  0.0700
19711SOL    HW160327   4.119   4.127   5.273  1.2641 -2.4770 -0.0233
19711SOL    HW260328   4.218   4.226   5.331 -0.3268 -0.0752 -1.2444
19712SOL     OW60329   0.680   0.934   4.744 -0.2088 -0.7422 -0.6206
19712SOL    HW160330   0.701   0.852   4.787 -0.6131 -1.2809 -1.4157
19712SOL    HW260331   0.586   0.927   4.723 -1.0461  1.1884  1.9678
19713SOL     OW60332   7.609   8.454   6.251  0.7693 -0.7623 -0.7805
19713SOL    HW160333   7.651   8.534   6.284  0.6636 -0.4949 -1.2831
19713SOL    HW260334   7.672   8.418   6.189 -0.4612  0.6650 -3.0181
19714SOL     OW60335   2.396   5.196   8.451  0.4526  0.0376  0.2052
19714SOL    HW160336   2.396   5.265   8.518  0.3782 -0.9735  1.2748
19714SOL    HW260337   2.419   5.242   8.370 -0.8921  1.5663  0.6235
19715SOL     OW60338   2.284   0.907   6.785 -0.3343  0.3952 -0.3138
19715SOL    HW160339   2.312   0.871   6.701  1.2033 -2.6603  1.3370
19715SOL    HW260340   2.199   0.949   6.766  0.3813  0.6724 -3.4893
19716SOL     OW60341   8.455   7.894   5.709  0.0079 -0.4096 -0.1714
19716SOL    HW160342   8.483   7.823   5.651  2.9890 -0.9440  1.6827
19716SOL    HW260343   8.506   7.881   5.789 -1.8255  1.9190  1.5325
19717SOL     OW60344   3.698   5.479   5.287  0.3449  0.1664 -0.7971
19717SOL    HW160345   3.617   5.529   5.282  0.4732  0.4208 -0.3033
19717SOL    HW260346   3.724   5.468   5.195 -1.8666 -2.6036 -1.2393
19718SOL     OW60347   0.907   6.599   6.303 -0.4355 -0.0120 -0.1015
19718SOL    HW160348   0.993   6.605   6.262  0.0716 -0.7507  0.8321
19718SOL    HW260349   0.855   6.545   6.243  0.1960 -0.8160  0.0727
19719SOL     OW60350   2.861   2.104   4.818 -0.2691 -0.5751  0.7105
19719SOL    HW160351   2.863   2.199   4.830 -0.2390 -0.3118 -1.1952
19719SOL    HW260352   2.810   2.072   4.893  0.6883  0.8103  2.0116
19720SOL     OW60353   7.508   3.124   4.447  0.0761  0.5137 -0.0441
19720SOL    HW160354   7.413   3.123   4.449  0.0899 -0.1898  0.5213
19720SOL    HW260355   7.533   3.197   4.504 -0.1291  0.7744 -0.2913
19721SOL     OW60356   4.770   8.595   7.257  0.1329  0.2879 -0.3532
19721SOL    HW160357   4.735   8.600   7.346  0.2179  1.1637 -0.3552
19721SOL    HW260358   4.696   8.619   7.201  0.1966  0.1664 -0.4891
19722SOL     OW60359   6.627   1.442   1.664 -0.1119 -0.6764  0.3124
19722SOL    HW160360   6.676   1.523   1.653 -1.3394 -0.0587 -0.7631
19722SOL    HW260361   6.583   1.428   1.580 -2.1807 -0.9291  1.3682
19723SOL     OW60362   7.799   7.026   5.646  0.2025 -0.0115 -0.3077
19723SOL    HW160363   7.772   6.935   5.663  1.2997 -0.4104 -0.6102
19723SOL    HW260364   7.721   7.068   5.609 -0.8794 -0.3274  1.5017
19724SOL     OW60365   3.082   6.446   6.865  0.4071  0.9740  0.0951
19724SOL    HW160366   3.124   6.401   6.939 -0.6812  0.4190  0.4015
19724SOL    HW260367   2.997   6.403   6.857 -0.0526  1.9850 -0.5788
19725SOL     OW60368   4.915   6.482   0.018 -0.4162  0.2420 -0.0982
19725SOL    HW160369   5.001   6.466   0.058 -0.8425 -1.2062  0.3156
19725SOL    HW260370   4.878   6.554   0.069  0.2138  0.3227  0.2627
19726SOL     OW60371   1.658   0.105   1.886 -0.2282 -0.3026  0.0827
19726SOL    HW160372   1.728   0.063   1.935 -2.5651 -1.8323  2.3586
19726SOL    HW260373   1.578   0.068   1.922 -2.2371  0.3688 -3.2616
19727SOL     OW60374   4.046   2.339   1.114  0.0079  0.3408 -0.0856
19727SOL    HW160375   3.987   2.391   1.169 -1.5846 -1.4723 -0.0050
19727SOL    HW260376   4.035   2.376   1.026 -0.5334  0.6247  0.0984
19728SOL     OW60377   1.995   3.751   3.424 -0.2445 -0.2543  0.4593
19728SOL    HW160378   2.032   3.834   3.396  0.5933 -0.0622  2.0246
19728SOL    HW260379   1.917   3.775   3.475 -1.1468 -0.5476 -0.7315
19729SOL     OW60380   5.568   1.292   5.021 -0.5673 -0.8952  0.7569
19729SOL    HW160381   5.656   1.254   5.032 -0.1080  0.2409  1.1376
19729SOL    HW260382   5.557   1.350   5.095 -1.3157 -0.3962  0.2683
19730SOL     OW60383   3.772   2.776   0.252  0.5244  0.5146 -0.0860
19730SOL    HW160384   3.743   2.802   0.165  0.6466  0.6155 -0.0975
19730SOL    HW260385   3.812   2.690   0.239  0.6537  0.5841 -0.1517
19731SOL     OW60386   5.066   6.910   0.614  0.1135 -0.0039  0.0960
19731SOL    HW160387   5.127   6.932   0.685  0.8002 -0.2392 -0.4081
19731SOL    HW260388   5.035   6.994   0.582 -0.0150  0.1114  0.5142
19732SOL     OW60389   7.141   6.294   1.165  0.4178 -0.1946 -0.7093
19732SOL    HW160390   7.229   6.332   1.175 -0.2052  1.3458 -0.8282
19732SOL    HW260391   7.109   6.283   1.255  0.7323 -0.8137 -0.6636
19733SOL     OW60392   6.079   1.933   2.522  0.0243  0.0775 -0.2753
19733SOL    HW160393   6.159   1.968   2.482  0.6413 -0.6874  0.2365
19733SOL    HW260394   6.069   1.982   2.604  0.6981 -0.6600  0.2747
19734SOL     OW60395   2.309   1.554   7.182  0.2455  0.5947  0.4904
19734SOL    HW160396   2.393   1.509   7.171 -0.2052 -0.4677  1.2359
19734SOL    HW260397   2.243   1.489   7.156 -0.3825  1.0791  0.8345
19735SOL     OW60398   8.312   3.085   6.977  0.6940  0.1543 -0.2531
19735SOL    HW160399   8.231   3.129   7.001  0.4406  0.1720 -1.1183
19735SOL    HW260400   8.378   3.154   6.974  0.4862  0.3319 -0.7312
19736SOL     OW60401   8.286   0.483   8.342  0.1609  0.4293 -0.4762
19736SOL    HW160402   8.195   0.510   8.329 -0.0044  0.3181  0.3792
19736SOL    HW260403   8.329   0.501   8.258 -0.6141  0.6188 -0.8386
19737SOL     OW60404   0.339   3.936   7.719 -0.5725 -0.3097  0.1232
19737SOL    HW160405   0.297   3.925   7.634 -2.9567 -0.6308  1.2550
19737SOL    HW260406   0.433   3.927   7.701 -0.9230  0.5572 -2.5824
19738SOL     OW60407   5.987   4.629   3.980 -0.1298  0.0276  0.4615
19738SOL    HW160408   6.030   4.687   3.918 -1.4454  0.0911 -0.4207
19738SOL    HW260409   5.906   4.673   4.003 -1.6063 -1.8120 -0.9252
19739SOL     OW60410   8.452   3.045   5.428 -0.2027 -0.5410 -0.2029
19739SOL    HW160411   8.429   2.981   5.361 -1.1838 -0.7584  0.3160
19739SOL    HW260412   8.454   3.129   5.382  0.6098 -0.8669 -0.7881
19740SOL     OW60413   1.159   0.115   2.538 -0.8510  0.1197 -0.0541
19740SOL    HW160414   1.132   0.129   2.447 -1.7039 -1.1485 -0.0282
19740SOL    HW260415   1.147   0.200   2.580 -0.8994  0.6055 -1.0059
19741SOL     OW60416   2.719   4.478   0.936 -0.9500  0.7921  0.1567
19741SOL    HW160417   2.731   4.384   0.920 -1.7537  0.4790  1.2249
19741SOL    HW260418   2.652   4.481   1.004  2.8477  1.8803  4.3190
19742SOL     OW60419   1.826   5.193   2.960 -0.5482  0.2051 -0.1284
19742SOL    HW160420   1.746   5.189   2.908 -1.2592  0.2967  0.9217
19742SOL    HW260421   1.895   5.210   2.897 -1.2626 -0.5437 -1.1392
19743SOL     OW60422   5.217   1.441   0.124 -0.6412  0.4338  0.0402
19743SOL    HW160423   5.294   1.488   0.092 -1.0624  1.1951  0.1409
19743SOL    HW260424   5.235   1.349   0.102 -0.8605  0.8908 -2.2630
19744SOL     OW60425   2.227   0.993   3.331  0.0573 -0.0197 -0.1958
19744SOL    HW160426   2.186   1.041   3.403  0.1613 -0.5335  0.2084
19744SOL    HW260427   2.159   0.935   3.298 -0.5341  1.4466 -1.6654
19745SOL     OW60428   1.267   2.919   2.514  0.2276  0.3530 -0.1739
19745SOL    HW160429   1.227   2.908   2.600  2.6027  0.9806  1.1013
19745SOL    HW260430   1.333   2.851   2.509  0.0882  0.2879 -1.5636
19746SOL     OW60431   6.907   5.383   2.890 -0.0736 -0.8139  0.5133
19746SOL    HW160432   6.930   5.471   2.919  1.0902 -0.8271 -0.2564
19746SOL    HW260433   6.860   5.397   2.808 -0.3118 -0.8957  0.6356
19747SOL     OW60434   7.008   0.911   2.102  0.0250 -0.1933 -0.1602
19747SOL    HW160435   7.055   0.994   2.099  0.3103 -0.2144  2.0530
19747SOL    HW260436   6.938   0.921   2.039 -0.3302  1.9935  0.4915
19748SOL     OW60437   4.404   0.911   0.406  0.4173  0.1939 -0.4989
19748SOL    HW160438   4.332   0.969   0.383 -0.6973 -1.3898 -1.2342
19748SOL    HW260439   4.366   0.850   0.469  1.0463 -0.7559 -1.0093
19749SOL     OW60440   2.451   2.239   0.978 -0.4348  0.4716 -0.2056
19749SOL    HW160441   2.495   2.167   1.022 -2.3035 -0.2424  0.6061
19749SOL    HW260442   2.506   2.258   0.902  0.6191 -1.1221  0.1078
19750SOL     OW60443   1.224   7.900   0.863  0.3775  0.1613 -0.1320
19750SOL    HW160444   1.154   7.951   0.822 -1.5439 -0.4397  2.2051
19750SOL    HW260445   1.179   7.839   0.921  2.8409 -0.3935  1.3538
19751SOL     OW60446   5.074   4.925   7.896  0.1154  0.1178 -0.4102
19751SOL    HW160447   5.053   5.019   7.901 -1.1064 -0.1916  2.5415
19751SOL    HW260448   5.028   4.895   7.818 -1.7457  1.5271  0.0516
19752SOL     OW60449   6.478   7.641   2.758 -0.7720 -0.0767 -0.4593
19752SOL    HW160450   6.406   7.702   2.743  0.3668  1.2678 -0.6854
19752SOL    HW260451   6.499   7.650   2.851 -1.2213 -0.8517 -0.2776
19753SOL     OW60452   7.419   2.918   6.730 -0.0004 -0.5613 -0.1802
19753SOL    HW160453   7.379   2.839   6.766 -0.9369 -0.0882 -0.1270
19753SOL    HW260454   7.406   2.911   6.636  2.7271 -1.9473 -0.5309
19754SOL     OW60455   7.146   2.459   3.050  0.2796 -0.0440  0.2940
19754SOL    HW160456   7.052   2.478   3.046  0.5952  1.4869 -0.5259
19754SOL    HW260457   7.150   2.368   3.080 -1.4938 -0.4584 -0.5343
19755SOL     OW60458   6.184   2.245   2.996  0.1866  0.0488 -0.0517
19755SOL    HW160459   6.097   2.271   2.965  0.3346  0.0776 -0.4463
19755SOL    HW260460   6.243   2.270   2.925  0.7360  1.5908  0.8953
19756SOL     OW60461   7.030   7.359   5.624  0.3169  0.4636 -0.0913
19756SOL    HW160462   7.076   7.413   5.688  1.0002 -0.6009  0.3506
19756SOL    HW260463   7.092   7.349   5.552 -0.3857  1.5191 -0.8657
19757SOL     OW60464   5.103   6.661   2.777  0.8837  0.2763 -0.5985
19757SOL    HW160465   5.070   6.746   2.749  2.1633  0.8142 -0.5903
19757SOL    HW260466   5.157   6.682   2.854 -0.0605 -0.7593  0.3790
19758SOL     OW60467   4.407   0.549   8.263 -0.2310  0.0694 -0.0755
19758SOL    HW160468   4.372   0.540   8.175 -0.0237  1.8469 -0.3803
19758SOL    HW260469   4.481   0.488   8.266 -0.7004 -0.5514 -0.8603
19759SOL     OW60470   5.461   0.833   5.132 -0.0726 -0.2863 -0.2857
19759SOL    HW160471   5.532   0.828   5.196 -0.7911  1.4614  0.7292
19759SOL    HW260472   5.383   0.804   5.179 -0.6461  1.1923 -0.2667
19760SOL     OW60473   8.220   5.135   0.147 -0.0671  0.2036 -0.5006
19760SOL    HW160474   8.173   5.181   0.216  0.3668 -0.1017  0.0013
19760SOL    HW260475   8.163   5.142   0.070 -2.3046 -2.5830  0.7699
19761SOL     OW60476   3.945   3.968   6.583  0.0500  0.4369 -0.2863
19761SOL    HW160477   3.994   4.040   6.624 -0.5405 -0.1069  1.4777
19761SOL    HW260478   4.002   3.892   6.592 -0.4276  0.1433  0.2723
19762SOL     OW60479   7.544   6.966   2.726 -0.2598 -0.2017 -0.0313
19762SOL    HW160480   7.467   7.017   2.702  0.3621  0.6193 -0.3295
19762SOL    HW260481   7.552   6.900   2.658 -1.8148 -1.5553  1.0368
19763SOL     OW60482   4.714   1.184   3.964  0.6512  0.3457 -0.0459
19763SOL    HW160483   4.665   1.236   4.028 -0.9448  0.4205 -1.2759
19763SOL    HW260484   4.753   1.250   3.906 -2.1309  0.3366 -2.1699
19764SOL     OW60485   1.234   2.417   3.234  0.2532 -0.0477 -0.6193
19764SOL    HW160486   1.247   2.512   3.235  0.4472 -0.0641  0.6637
19764SOL    HW260487   1.261   2.388   3.321  0.2195 -1.2924 -0.9975
19765SOL     OW60488   5.464   4.296   1.704 -0.2753  0.6544  0.3507
19765SOL    HW160489   5.506   4.379   1.728  0.5689  0.7474 -1.2883
19765SOL    HW260490   5.388   4.290   1.761  0.2321  2.0483  1.2217
19766SOL     OW60491   4.751   0.702   6.513  0.1826 -0.3092 -0.7400
19766SOL    HW160492   4.784   0.765   6.450 -0.7261  0.0771 -0.8501
19766SOL    HW260493   4.717   0.630   6.460 -0.0106 -0.2682 -0.6759
19767SOL     OW60494   0.955   7.293   3.922 -0.1111  0.1750 -0.0958
19767SOL    HW160495   0.930   7.359   3.857 -0.8258 -1.1740 -1.2630
19767SOL    HW260496   0.934   7.209   3.880 -0.1693 -0.7733  1.7091
19768SOL     OW60497   4.864   0.423   4.824 -0.7753  0.5377 -0.0566
19768SOL    HW160498   4.841   0.349   4.881  2.2902  0.3994  1.1429
19768SOL    HW260499   4.893   0.492   4.884 -0.8211  1.6872 -1.3138
19769SOL     OW60500   8.059   0.723   4.433 -0.0788  0.1351  0.2634
19769SOL    HW160501   8.116   0.794   4.404  1.1913  0.1451  2.5164
19769SOL    HW260502   7.997   0.711   4.361  1.9512  0.9979 -1.7586
19770SOL     OW60503   5.081   3.526   2.181  0.2156  0.2568  0.4874
19770SOL    HW160504   5.158   3.469   2.185 -0.9010 -1.3281  0.5717
19770SOL    HW260505   5.011   3.476   2.224 -1.1318  1.1756 -0.5241
19771SOL     OW60506   6.827   7.791   6.366  0.4695 -0.0738 -0.8496
19771SOL    HW160507   6.735   7.776   6.385  0.5923 -1.2301 -1.0969
19771SOL    HW260508   6.865   7.816   6.451  0.1549 -0.8072 -0.4805
19772SOL     OW60509   1.012   7.570   8.038 -0.0019 -0.2661  0.5557
19772SOL    HW160510   0.955   7.530   8.103 -1.6393 -0.4723 -0.9304
19772SOL    HW260511   1.100   7.538   8.060 -0.7630 -1.7689  1.5602
19773SOL     OW60512   1.901   1.326   4.871  0.3374 -0.3690  0.0683
19773SOL    HW160513   1.811   1.345   4.899 -0.0422 -2.1955  0.2335
19773SOL    HW260514   1.956   1.366   4.938 -0.4283 -0.8301  0.9967
19774SOL     OW60515   7.163   3.570   3.131  0.6493 -0.3024 -0.3691
19774SOL    HW160516   7.187   3.544   3.042  0.8673 -1.9342  0.1376
19774SOL    HW260517   7.230   3.531   3.187 -0.2015 -0.3969  0.6139
19775SOL     OW60518   5.079   0.048   1.810  0.7936  0.3232 -0.2272
19775SOL    HW160519   5.082   0.046   1.905 -0.0589  1.4766 -0.1607
19775SOL    HW260520   5.170   0.048   1.782  1.0433 -0.1768  0.5740
19776SOL     OW60521   2.632   0.940   2.711 -0.4317  0.3384 -0.4644
19776SOL    HW160522   2.716   0.904   2.738  0.7834  2.5019 -1.0846
19776SOL    HW260523   2.569   0.908   2.776  1.5220  1.6414  2.2517
19777SOL     OW60524   7.282   2.855   4.358 -0.1971 -0.3427 -0.2031
19777SOL    HW160525   7.246   2.944   4.348 -2.8558 -1.3760 -0.6792
19777SOL    HW260526   7.236   2.819   4.433 -2.3922 -2.6870 -2.4925
19778SOL     OW60527   1.291   0.738   8.212 -0.1599 -0.0945 -0.1314
19778SOL    HW160528   1.274   0.670   8.147 -1.7267  0.2711 -0.1431
19778SOL    HW260529   1.210   0.743   8.263  0.4974  0.6862  0.8813
19779SOL     OW60530   2.439   6.073   6.975 -0.0477 -0.2005  0.3739
19779SOL    HW160531   2.522   6.030   6.995  0.8310  0.6905 -1.1872
19779SOL    HW260532   2.415   6.117   7.056  1.7503  0.6931  0.4652
19780SOL     OW60533   2.447   2.039   1.873 -0.3370 -0.2691 -0.4946
19780SOL    HW160534   2.361   2.078   1.857  0.1614  1.6166  1.0819
19780SOL    HW260535   2.432   1.944   1.868 -2.4707  0.0201 -0.3375
19781SOL     OW60536   4.883   3.453   3.978  0.1802  0.0332  0.1252
19781SOL    HW160537   4.931   3.492   3.906  1.5182 -0.1990  0.8647
19781SOL    HW260538   4.857   3.367   3.947  1.2586 -0.2949  0.1127
19782SOL     OW60539   3.218   2.614   0.017 -0.0548  0.2163  0.0009
19782SOL    HW160540   3.148   2.588   0.076  0.0043 -0.9631 -0.4229
19782SOL    HW260541   3.174   2.631  -0.066  0.0028  0.8009  0.0836
19783SOL     OW60542   4.647   8.050   7.528  0.1404  0.1388  0.3951
19783SOL    HW160543   4.718   8.004   7.574  0.9220 -0.2802 -1.1586
19783SOL    HW260544   4.613   7.986   7.467  0.5609  1.2753 -1.0949
19784SOL     OW60545   2.345   3.466   5.851  0.2118  0.1780  0.1185
19784SOL    HW160546   2.288   3.543   5.859  0.7189  0.7674 -1.5417
19784SOL    HW260547   2.298   3.397   5.897 -1.3202  0.9338 -0.2483
19785SOL     OW60548   5.361   0.800   4.353  0.1433 -0.2404  0.3985
19785SOL    HW160549   5.356   0.792   4.258  0.1517  1.8909  0.1714
19785SOL    HW260550   5.346   0.711   4.385  0.9388 -1.1606 -1.5997
19786SOL     OW60551   6.412   6.386   2.351  0.6773  0.5377  0.3395
19786SOL    HW160552   6.501   6.421   2.342  0.4556  1.4870  1.5647
19786SOL    HW260553   6.416   6.330   2.429  0.4556 -0.3308 -0.2557
19787SOL     OW60554   0.449   8.579   0.133  0.2940  0.3947  0.1408
19787SOL    HW160555   0.457   8.656   0.077  1.5961 -0.1028 -0.3957
19787SOL    HW260556   0.424   8.614   0.218  0.4640  1.3770 -0.2003
19788SOL     OW60557   0.142   3.013   7.750 -0.1823  0.0660 -0.3301
19788SOL    HW160558   0.197   2.936   7.762  2.1106  1.7671  0.7777
19788SOL    HW260559   0.118   3.011   7.657  1.4221 -0.9765 -0.7688
19789SOL     OW60560   3.509   5.168   6.444 -0.1040 -0.7307  0.2523
19789SOL    HW160561   3.473   5.256   6.444 -1.2203 -1.1766  0.1311
19789SOL    HW260562   3.574   5.168   6.515 -0.8193 -0.1065  0.9181
19790SOL     OW60563   5.307   4.684   4.300  0.4644 -0.6343 -0.1870
19790SOL    HW160564   5.313   4.779   4.311  0.8301 -0.6989  0.1701
19790SOL    HW260565   5.218   4.670   4.267  0.1754 -0.2290  0.3933
19791SOL     OW60566   0.309   4.118   4.083  0.4248 -0.0103 -0.3599
19791SOL    HW160567   0.356   4.036   4.096  3.7592  1.8081  0.0051
19791SOL    HW260568   0.327   4.142   3.992 -2.2357 -0.5384 -1.1409
19792SOL     OW60569   6.843   5.488   0.173  0.1134 -0.3750 -0.1448
19792SOL    HW160570   6.902   5.422   0.139  0.2376 -1.4913  2.0531
19792SOL    HW260571   6.764   5.480   0.119  1.8424  1.1976 -3.1738
19793SOL     OW60572   4.040   5.210   3.113  0.0685  0.6124  0.3040
19793SOL    HW160573   4.060   5.139   3.174  3.0124  0.2027 -1.0022
19793SOL    HW260574   4.114   5.269   3.119 -1.6057  2.8556  0.2093
19794SOL     OW60575   4.277   6.990   0.717  0.4945 -0.1221  0.2225
19794SOL    HW160576   4.240   6.907   0.687  0.2206  0.2570 -0.5278
19794SOL    HW260577   4.249   7.053   0.651  0.9126  0.5207  0.6517
19795SOL     OW60578   0.037   1.990   7.168 -0.8030 -0.0049  0.8887
19795SOL    HW160579   0.123   1.974   7.207 -0.7287 -1.4546  0.1790
19795SOL    HW260580   0.051   1.982   7.074 -1.2099  2.3523  0.5521
19796SOL     OW60581   1.078   6.924   4.851  0.0196 -0.4678  0.2825
19796SOL    HW160582   1.046   6.877   4.928 -1.4142 -2.5142 -1.4522
19796SOL    HW260583   1.170   6.900   4.844 -0.0043 -0.7744  1.0008
19797SOL     OW60584   3.156   2.037   1.888 -0.2079 -0.6153  0.0413
19797SOL    HW160585   3.067   2.072   1.893 -0.1117 -0.1500 -1.1851
19797SOL    HW260586   3.166   2.009   1.797  1.5505  1.1787 -0.3929
19798SOL     OW60587   4.125   2.077   3.371  0.0593 -0.1433 -0.0610
19798SOL    HW160588   4.157   2.167   3.378  0.6436 -0.2906 -0.6696
19798SOL    HW260589   4.104   2.051   3.460  2.3600 -0.2921  0.4978
19799SOL     OW60590   3.806   5.741   0.907  0.7599  0.1304  0.1465
19799SOL    HW160591   3.719   5.712   0.935  0.9473 -1.5620 -0.8759
19799SOL    HW260592   3.862   5.727   0.984  0.3591  0.1818  0.4536
19800SOL     OW60593   0.525   7.621   7.106  0.0341 -0.2471 -0.1426
19800SOL    HW160594   0.551   7.626   7.014  0.3807 -0.2976 -0.0484
19800SOL    HW260595   0.432   7.597   7.104 -0.0290  0.0163 -0.4832
19801SOL     OW60596   4.587   3.793   3.980  0.1641  0.4126  0.1847
19801SOL    HW160597   4.543   3.772   4.062 -0.8085 -1.5708 -0.8000
19801SOL    HW260598   4.523   3.844   3.930  0.1756  0.2654  0.0201
19802SOL     OW60599   7.816   7.157   3.097  0.1495 -0.8489  0.0293
19802SOL    HW160600   7.852   7.100   3.165  0.4144  0.7450  1.2660
19802SOL    HW260601   7.836   7.246   3.126  1.1898 -0.1079 -2.6439
19803SOL     OW60602   3.362   6.516   2.934  0.2086 -0.0315  0.1327
19803SOL    HW160603   3.374   6.518   2.839  0.9604  0.0406  0.2207
19803SOL    HW260604   3.321   6.600   2.954  0.4053  0.1178 -0.0833
19804SOL     OW60605   3.040   3.101   3.613  0.0466  0.4630 -0.3769
19804SOL    HW160606   3.099   3.094   3.689  0.3626 -1.8775 -0.7667
19804SOL    HW260607   3.048   3.017   3.569 -2.5850  0.5731 -1.2316
19805SOL     OW60608   2.312   7.677   3.046 -0.0793 -0.2514 -0.3658
19805SOL    HW160609   2.351   7.659   3.131  0.7350  0.8441 -0.4985
19805SOL    HW260610   2.221   7.700   3.066 -0.2549 -1.2560  0.0725
19806SOL     OW60611   5.035   5.836   2.581 -0.4474  0.8039  0.7965
19806SOL    HW160612   4.982   5.802   2.509 -0.7063  0.8684  0.9558
19806SOL    HW260613   4.986   5.813   2.660  0.7492 -0.9435  1.0897
19807SOL     OW60614   0.650   0.371   0.832 -0.0179  0.1008 -0.1271
19807SOL    HW160615   0.583   0.319   0.876 -1.1459  0.0724 -1.7782
19807SOL    HW260616   0.616   0.385   0.744  2.3712 -0.3133 -1.2122
19808SOL     OW60617   0.537   3.788   1.764 -0.4263 -0.6725 -0.3401
19808SOL    HW160618   0.628   3.777   1.792 -0.0077  0.9224 -0.9183
19808SOL    HW260619   0.486   3.784   1.845  0.5297  1.6512  0.4744
19809SOL     OW60620   1.151   4.663   7.363  0.3034 -0.2805 -0.2884
19809SOL    HW160621   1.184   4.616   7.286  0.8491 -0.9196  0.3293
19809SOL    HW260622   1.144   4.754   7.334  3.8724  0.1916 -0.0891
19810SOL     OW60623   6.290   3.165   5.897 -0.4202  0.7960  0.0157
19810SOL    HW160624   6.358   3.178   5.964 -0.9526 -0.5423  0.8525
19810SOL    HW260625   6.218   3.222   5.924 -1.7695 -1.7635  2.2785
19811SOL     OW60626   3.333   8.266   1.287  0.0701  0.1033  0.1750
19811SOL    HW160627   3.353   8.261   1.380  0.6428 -0.6101  0.0192
19811SOL    HW260628   3.301   8.179   1.264 -0.9277  0.5250 -0.1137
19812SOL     OW60629   7.224   2.298   5.651  0.3256  0.0891  0.0705
19812SOL    HW160630   7.179   2.254   5.579  0.7815  0.1636 -0.2631
19812SOL    HW260631   7.166   2.370   5.675  0.9977  1.1859 -1.4382
19813SOL     OW60632   2.175   0.420   4.102 -0.1792 -0.3345  0.8051
19813SOL    HW160633   2.255   0.469   4.081 -1.3889  0.7631 -1.5903
19813SOL    HW260634   2.148   0.455   4.186  1.2453  0.0751  1.1300
19814SOL     OW60635   6.398   1.519   2.313  0.3063 -0.1456 -0.0650
19814SOL    HW160636   6.323   1.463   2.331  1.2181 -0.5405  3.1991
19814SOL    HW260637   6.371   1.605   2.344  1.0880 -0.2665  1.0177
19815SOL     OW60638   1.393   4.419   7.972 -0.0457  0.0524 -0.8404
19815SOL    HW160639   1.409   4.504   8.013 -0.4410  0.0308 -0.6353
19815SOL    HW260640   1.473   4.400   7.924 -0.3035  0.9824 -1.6710
19816SOL     OW60641   7.729   6.680   1.477  0.1075 -0.2281 -0.0726
19816SOL    HW160642   7.639   6.694   1.446 -1.2894 -2.3684  2.5125
19816SOL    HW260643   7.773   6.637   1.404 -0.5865  1.7717 -1.7625
19817SOL     OW60644   6.368   2.417   3.997  0.2494  0.1057  0.5524
19817SOL    HW160645   6.319   2.343   3.961 -0.8160  0.8691  0.4192
19817SOL    HW260646   6.357   2.408   4.092  0.7893 -0.3489  0.5795
19818SOL     OW60647   6.736   0.229   5.394  0.3766 -0.0044 -0.7545
19818SOL    HW160648   6.812   0.229   5.336  0.3385  0.5247 -0.8127
19818SOL    HW260649   6.682   0.302   5.363  0.2756  0.1787 -0.1629
19819SOL     OW60650   1.153   7.529   1.448  0.0863  0.1338 -0.2718
19819SOL    HW160651   1.191   7.550   1.534  0.4999 -1.8650  0.0834
19819SOL    HW260652   1.062   7.507   1.468  0.6165 -2.0376 -0.0330
19820SOL     OW60653   4.766   1.562   8.061  0.2512  0.2527 -0.2303
19820SOL    HW160654   4.835   1.627   8.079  0.0893  0.7305 -1.2666
19820SOL    HW260655   4.813   1.487   8.025  0.0921  1.4587 -3.2361
19821SOL     OW60656   1.864   1.638   3.222  0.1901  0.0032 -0.6714
19821SOL    HW160657   1.780   1.679   3.202  0.0484  0.2744  0.3706
19821SOL    HW260658   1.915   1.645   3.142 -0.1175  1.5383 -0.7562
19822SOL     OW60659   5.202   3.185   1.632 -0.1263 -0.4563 -0.5170
19822SOL    HW160660   5.189   3.279   1.643  1.6397 -0.1815 -0.5531
19822SOL    HW260661   5.263   3.160   1.701  0.4386 -1.3082 -1.2909
19823SOL     OW60662   7.524   5.868   0.101  0.0087  0.1305  0.3495
19823SOL    HW160663   7.489   5.784   0.071  2.7621 -0.7153 -0.8631
19823SOL    HW260664   7.503   5.871   0.194 -2.9782 -0.3084 -0.2053
19824SOL     OW60665   5.484   4.619   6.672  0.0351  0.4434 -0.2346
19824SOL    HW160666   5.425   4.662   6.734  1.0321  0.4340  0.7457
19824SOL    HW260667   5.427   4.564   6.619 -0.8968  0.7816  0.3902
19825SOL     OW60668   5.996   1.902   6.884  0.1744 -0.6513  0.2145
19825SOL    HW160669   5.938   1.959   6.934 -1.5623 -2.6783  0.6679
19825SOL    HW260670   5.937   1.854   6.826  1.6243 -1.6345 -0.4897
19826SOL     OW60671   5.083   5.906   2.204 -0.4125 -0.5782 -0.1049
19826SOL    HW160672   5.099   5.906   2.110 -0.2944 -1.9672 -0.1146
19826SOL    HW260673   5.004   5.958   2.216 -3.1199 -3.9659 -1.5531
19827SOL     OW60674   0.226   3.726   1.693  0.0383 -0.2653 -0.4163
19827SOL    HW160675   0.207   3.633   1.700  1.1664 -0.5163 -0.4739
19827SOL    HW260676   0.245   3.739   1.600 -0.2583  0.0570 -0.4340
19828SOL     OW60677   4.254   2.321   4.827 -0.4001  0.3281  0.1726
19828SOL    HW160678   4.266   2.404   4.781  0.2147  0.8934  1.3229
19828SOL    HW260679   4.339   2.278   4.821  0.0344  0.9153  1.7215
19829SOL     OW60680   2.131   0.187   2.919  0.2491  0.1699  0.6520
19829SOL    HW160681   2.096   0.148   2.839  1.1340  0.8502 -0.0940
19829SOL    HW260682   2.186   0.119   2.957 -0.9232 -0.4905  1.2080
19830SOL     OW60683   5.414   1.156   5.310  0.5595 -0.0464 -0.0182
19830SOL    HW160684   5.402   1.073   5.356 -0.1489  0.4541  0.7095
19830SOL    HW260685   5.445   1.131   5.223  0.5705 -1.0604  0.2714
19831SOL     OW60686   1.614   1.260   7.634 -0.0942 -0.0139 -0.1950
19831SOL    HW160687   1.583   1.207   7.560 -1.4518 -0.1395  0.4372
19831SOL    HW260688   1.708   1.242   7.638 -0.1425 -0.6338 -1.3810
19832SOL     OW60689   6.440   1.361   1.858 -0.3866  0.4841  0.7113
19832SOL    HW160690   6.505   1.391   1.794 -1.9398 -0.6244 -1.5577
19832SOL    HW260691   6.469   1.274   1.883 -0.2867  0.5176  0.7098
19833SOL     OW60692   6.103   4.112   3.221 -0.6724  0.2610 -0.4718
19833SOL    HW160693   6.134   4.025   3.199 -0.6032  0.2659 -0.3932
19833SOL    HW260694   6.013   4.099   3.251 -0.4808  0.1492  0.0618
19834SOL     OW60695   5.928   7.704   0.701  0.4195 -0.2285  0.6614
19834SOL    HW160696   5.870   7.688   0.776 -0.6220  0.9532  0.1520
19834SOL    HW260697   5.900   7.789   0.667  2.0375  0.0774 -0.0157
19835SOL     OW60698   7.395   1.690   0.261 -0.0604 -0.0653  0.6040
19835SOL    HW160699   7.386   1.784   0.249  1.1472 -0.0559 -0.3230
19835SOL    HW260700   7.318   1.666   0.313 -1.3621  1.1413 -0.6569
19836SOL     OW60701   5.688   6.336   0.235  0.4433 -0.2961  0.8190
19836SOL    HW160702   5.756   6.403   0.226 -0.3595  0.5296  0.8103
19836SOL    HW260703   5.734   6.254   0.218  1.1768  0.3462 -0.4988
19837SOL     OW60704   4.865   7.542   2.448 -0.1789 -0.7988 -0.1518
19837SOL    HW160705   4.864   7.454   2.411 -0.1653 -0.6511 -0.5085
19837SOL    HW260706   4.957   7.564   2.456 -0.1777 -0.9069  0.1628
19838SOL     OW60707   1.238   0.228   3.910 -0.0949  0.6798 -0.3107
19838SOL    HW160708   1.159   0.257   3.865 -0.0300 -0.5096 -1.2627
19838SOL    HW260709   1.310   0.265   3.858 -0.0266 -0.0908 -0.7870
19839SOL     OW60710   8.037   0.035   6.831  0.0674 -0.9290 -0.1661
19839SOL    HW160711   8.052   0.076   6.916 -1.7310  0.8752 -0.6530
19839SOL    HW260712   7.966  -0.027   6.845  0.0869 -0.9726 -0.2531
19840SOL     OW60713   4.262   5.108   5.999  0.0893 -0.2891 -0.1653
19840SOL    HW160714   4.245   5.186   6.052 -1.3158 -1.6070  1.4396
19840SOL    HW260715   4.332   5.062   6.047  0.3772 -0.4039 -0.6894
19841SOL     OW60716   2.589   0.258   2.029  0.6657 -0.2330  0.0072
19841SOL    HW160717   2.657   0.324   2.043  0.4396 -0.3252  1.9079
19841SOL    HW260718   2.609   0.190   2.094 -0.2437 -1.0753 -0.5734
19842SOL     OW60719   7.121   1.115   0.712  0.0338  0.5431 -0.1077
19842SOL    HW160720   7.122   1.053   0.640  2.0426  0.5883 -0.1994
19842SOL    HW260721   7.175   1.188   0.681  0.4255  0.8382  1.1921
19843SOL     OW60722   7.556   1.517   7.960 -0.8407 -0.0958 -0.0956
19843SOL    HW160723   7.577   1.533   7.868  3.9428 -0.8948  0.6403
19843SOL    HW260724   7.549   1.422   7.968 -0.6208 -0.0688  0.4794
19844SOL     OW60725   3.066   3.695   7.469 -0.0722  0.1665 -0.2812
19844SOL    HW160726   3.078   3.641   7.391  2.2234 -0.2601  0.2990
19844SOL    HW260727   3.101   3.780   7.444 -0.0058  0.2363  0.0520
19845SOL     OW60728   5.113   7.647   4.270 -0.6243  0.3334  0.5441
19845SOL    HW160729   5.154   7.692   4.196 -2.4207 -0.2000 -0.8364
19845SOL    HW260730   5.185   7.633   4.332  1.1534  0.0444 -1.4605
19846SOL     OW60731   5.688   0.793   3.633 -0.0509 -0.0705  0.4638
19846SOL    HW160732   5.652   0.856   3.696 -1.3309  0.2071 -0.5095
19846SOL    HW260733   5.654   0.822   3.549  1.1039 -0.8233 -0.2814
19847SOL     OW60734   2.699   0.392   3.729  0.1669 -0.2798 -0.4172
19847SOL    HW160735   2.606   0.391   3.709 -0.0807  0.5706  0.6148
19847SOL    HW260736   2.707   0.339   3.809  0.2646  1.2704  0.6367
19848SOL     OW60737   3.124   5.219   5.638  0.0248 -0.2276 -0.7985
19848SOL    HW160738   3.098   5.281   5.706 -1.1560  0.1198 -1.5361
19848SOL    HW260739   3.041   5.179   5.610  0.6065 -1.0482 -1.3688
19849SOL     OW60740   0.807   5.791   5.280 -0.6622 -0.1380 -0.4063
19849SOL    HW160741   0.873   5.858   5.295 -0.8053 -0.4977  2.1974
19849SOL    HW260742   0.808   5.777   5.185  3.4881 -0.6734 -0.4280
19850SOL     OW60743   3.038   3.901   0.596  0.4760  0.3481 -0.3990
19850SOL    HW160744   3.011   3.818   0.557 -0.5138  0.5809 -0.2400
19850SOL    HW260745   3.132   3.892   0.608  0.4068 -0.6986 -0.5125
19851SOL     OW60746   2.593   3.296   2.633  0.2645  0.4376 -0.1057
19851SOL    HW160747   2.517   3.292   2.576  1.6885 -0.1719 -2.0970
19851SOL    HW260748   2.668   3.297   2.573  1.8478  0.5151  1.7585
19852SOL     OW60749   3.482   2.580   6.823  0.1087 -0.2182  0.5048
19852SOL    HW160750   3.546   2.587   6.894  1.5781  0.2589 -0.8174
19852SOL    HW260751   3.460   2.486   6.820  2.6433 -0.8715 -0.5605
19853SOL     OW60752   6.632   4.002   4.902  0.3454 -0.2347 -0.0122
19853SOL    HW160753   6.572   4.068   4.867  1.9557  1.0829 -0.4700
19853SOL    HW260754   6.625   4.011   4.997 -1.7791 -1.6752  0.0217
19854SOL     OW60755   5.307   0.554   4.463  0.4537 -0.3292 -0.2070
19854SOL    HW160756   5.225   0.508   4.445 -1.2310  2.4687 -0.3053
19854SOL    HW260757   5.352   0.499   4.528 -2.7736 -0.6973  1.9593
19855SOL     OW60758   4.276   8.268   4.201 -0.0838 -0.4483 -0.0463
19855SOL    HW160759   4.351   8.303   4.248 -0.9608  0.5037  0.6998
19855SOL    HW260760   4.261   8.330   4.130 -0.3252 -0.4874 -0.0310
19856SOL     OW60761   4.132   8.577   3.583  0.2673 -0.2762 -0.2194
19856SOL    HW160762   4.139   8.651   3.643  0.1922  0.3766 -1.0047
19856SOL    HW260763   4.038   8.556   3.583  0.5446 -1.8489  1.7248
19857SOL     OW60764   7.773   1.279   0.114  0.1290  1.0019 -0.5439
19857SOL    HW160765   7.833   1.310   0.182  0.7336  0.3264 -0.7539
19857SOL    HW260766   7.693   1.256   0.161  0.9815 -0.7074  0.1617
19858SOL     OW60767   7.002   6.893   7.664 -0.0469  0.2603 -0.2710
19858SOL    HW160768   6.973   6.981   7.688  0.0519  0.3477 -0.4689
19858SOL    HW260769   6.948   6.870   7.589 -0.1564  0.1034 -0.1436
19859SOL     OW60770   0.528   4.468   1.669 -1.0222  0.1428 -0.8224
19859SOL    HW160771   0.581   4.529   1.721  1.2639 -2.7632  0.5823
19859SOL    HW260772   0.534   4.501   1.579 -0.2365  2.1640 -0.0845
19860SOL     OW60773   8.455   8.207   7.926 -0.0596  0.3533  0.4684
19860SOL    HW160774   8.490   8.286   7.885  0.9107 -0.1330  0.3333
19860SOL    HW260775   8.442   8.231   8.018 -1.6967  1.2689  0.0311
19861SOL     OW60776   0.803   1.763   5.402  0.3229  0.1776  0.0599
19861SOL    HW160777   0.801   1.847   5.357 -0.7658  0.0260 -0.2050
19861SOL    HW260778   0.720   1.759   5.450 -0.1694 -1.2234 -0.8453
19862SOL     OW60779   8.460   5.962   2.671 -0.0673  0.0611 -0.0918
19862SOL    HW160780   8.414   6.009   2.741 -1.2150  2.1575 -2.1127
19862SOL    HW260781   8.394   5.952   2.602  1.3610 -0.7534 -1.3868
19863SOL     OW60782   7.317   6.057   7.308 -0.3666  0.6294 -0.5627
19863SOL    HW160783   7.286   6.058   7.399  0.8507 -2.0714 -0.0302
19863SOL    HW260784   7.411   6.068   7.314 -0.4343  2.1516 -1.6831
19864SOL     OW60785   0.636   2.953   5.829  0.3693 -0.1517 -0.3371
19864SOL    HW160786   0.642   2.970   5.735 -2.2975  0.0159 -0.5395
19864SOL    HW260787   0.620   2.859   5.836  1.6222 -0.3557  0.0481
19865SOL     OW60788   4.824   2.404   1.086  0.0772 -0.1052 -0.0974
19865SOL    HW160789   4.911   2.367   1.071  1.2417  1.7589  1.5428
19865SOL    HW260790   4.829   2.493   1.052 -1.6208 -0.3317 -1.0720
19866SOL     OW60791   5.184   7.082   6.257  0.2647  0.0089 -0.0948
19866SOL    HW160792   5.207   7.003   6.210 -0.6688 -0.1481 -0.3048
19866SOL    HW260793   5.103   7.060   6.303  0.4209  0.5923  0.4758
19867SOL     OW60794   8.581   7.896   1.631  0.0886 -0.4219  0.1878
19867SOL    HW160795   8.624   7.821   1.589  1.8028  0.4301  0.3073
19867SOL    HW260796   8.527   7.857   1.699 -1.0788 -1.6911 -1.3733
19868SOL     OW60797   7.433   0.021   3.299 -0.3399 -0.2097  0.0125
19868SOL    HW160798   7.441   0.010   3.204  1.8077  0.3263  0.0872
19868SOL    HW260799   7.485  -0.051   3.336  1.2369  1.2451  0.7091
19869SOL     OW60800   1.993   6.605   0.997 -0.1776 -0.3857  0.2889
19869SOL    HW160801   1.992   6.683   0.941 -0.9236 -0.6758 -0.1200
19869SOL    HW260802   2.075   6.612   1.047 -0.1949  0.6074  0.1945
19870SOL     OW60803   3.036   1.786   7.128  0.5095 -0.4888  0.6096
19870SOL    HW160804   3.029   1.690   7.122  0.8336 -0.5370  0.9593
19870SOL    HW260805   3.121   1.806   7.088  0.8161 -0.4264  1.2842
19871SOL     OW60806   7.062   5.320   4.139 -0.2790  0.2492 -0.1648
19871SOL    HW160807   7.101   5.283   4.219 -0.5517 -1.5871 -0.8343
19871SOL    HW260808   7.133   5.372   4.100 -0.1930  1.3314  1.3194
19872SOL     OW60809   8.591   6.375   6.752  0.1771  0.2651 -0.0749
19872SOL    HW160810   8.547   6.290   6.747  1.4342 -0.3647 -1.0713
19872SOL    HW260811   8.650   6.367   6.827 -0.2197  0.5101  0.2618
19873SOL     OW60812   4.189   6.187   0.988  0.2651  0.4719 -0.2681
19873SOL    HW160813   4.145   6.104   1.003  0.3756  0.4537 -0.0334
19873SOL    HW260814   4.122   6.245   0.953  0.0170  0.4945  0.2407
19874SOL     OW60815   8.121   3.676   4.295 -0.0703 -0.9735 -0.7699
19874SOL    HW160816   8.061   3.636   4.359 -0.8996 -0.5887 -1.2936
19874SOL    HW260817   8.066   3.697   4.220  0.3999  0.8450 -0.6478
19875SOL     OW60818   1.280   6.917   0.407 -0.6485 -0.3851 -0.3844
19875SOL    HW160819   1.355   6.918   0.348 -2.0937  0.1346 -2.2708
19875SOL    HW260820   1.288   6.998   0.458  1.1319 -1.3041  0.9000
19876SOL     OW60821   5.211   3.081   5.366 -0.3071  0.0361 -0.7187
19876SOL    HW160822   5.174   3.160   5.327  0.7246  0.2992 -1.1947
19876SOL    HW260823   5.268   3.114   5.436  0.9718 -0.2001 -1.6120
19877SOL     OW60824   4.691   8.013   5.484 -0.5239 -0.6967 -0.3507
19877SOL    HW160825   4.725   7.930   5.449 -0.3886 -0.5913 -0.4745
19877SOL    HW260826   4.768   8.070   5.486 -0.5322 -0.7000  0.1205
19878SOL     OW60827   7.471   8.163   5.292 -0.0352  0.4954 -0.6678
19878SOL    HW160828   7.552   8.213   5.295 -1.0882  2.2859 -0.5764
19878SOL    HW260829   7.498   8.072   5.308  2.0095  0.9261 -1.3552
19879SOL     OW60830   3.407   3.469   8.386  0.2665  0.0034  0.2248
19879SOL    HW160831   3.343   3.498   8.451 -0.4625  1.1914 -0.9953
19879SOL    HW260832   3.403   3.534   8.316 -0.3894 -2.2308 -1.9662
19880SOL     OW60833   5.235   5.378   7.514 -0.6268  0.0975 -0.6212
19880SOL    HW160834   5.322   5.337   7.513  0.2150  1.7218  0.4462
19880SOL    HW260835   5.237   5.438   7.440 -1.3415 -0.7731 -1.3627
19881SOL     OW60836   3.189   5.433   7.122  0.3990  0.8007 -0.3641
19881SOL    HW160837   3.283   5.447   7.130  0.5853 -0.0413 -0.9561
19881SOL    HW260838   3.159   5.420   7.213  1.0297  0.0835 -0.2435
19882SOL     OW60839   1.879   5.255   8.064 -0.0431  0.6772 -0.2827
19882SOL    HW160840   1.935   5.291   7.995  1.4962 -1.6274 -0.3276
19882SOL    HW260841   1.807   5.213   8.016 -0.5592  1.5965 -0.3304
19883SOL     OW60842   3.102   1.511   7.125  0.1247  0.2128  0.1015
19883SOL    HW160843   3.067   1.423   7.135 -0.0616  0.0853 -1.4376
19883SOL    HW260844   3.167   1.504   7.055  0.1646  1.2718  0.0105
19884SOL     OW60845   1.063   1.028   7.976  0.1456  0.1527 -0.0116
19884SOL    HW160846   1.049   0.964   7.906 -0.3642 -0.3035  0.4964
19884SOL    HW260847   1.116   1.096   7.936  0.1488 -0.2728 -0.7472
19885SOL     OW60848   5.356   0.404   5.911  0.0880 -0.2687  0.1347
19885SOL    HW160849   5.362   0.353   5.829 -1.1454  0.8221 -0.6819
19885SOL    HW260850   5.301   0.350   5.968 -0.5751 -0.2192 -0.4430
19886SOL     OW60851   5.952   4.275   6.257 -0.4316  0.0279 -0.5746
19886SOL    HW160852   5.940   4.185   6.227  1.3406  0.1150 -1.7245
19886SOL    HW260853   6.022   4.269   6.322 -2.3954  0.2175  1.6862
19887SOL     OW60854   7.701   8.103   5.162 -0.0674  0.2667  0.6441
19887SOL    HW160855   7.696   8.153   5.080  0.4425 -0.5307  0.1044
19887SOL    HW260856   7.623   8.048   5.161 -0.2978  0.5808  0.9285
19888SOL     OW60857   1.320   1.749   2.685  0.2586  0.4120 -0.0251
19888SOL    HW160858   1.340   1.657   2.704  0.4023  0.4647  0.0805
19888SOL    HW260859   1.398   1.783   2.643  0.1918  0.4769 -0.0967
19889SOL     OW60860   3.092   2.838   8.347 -0.3408 -0.2130 -0.3825
19889SOL    HW160861   2.999   2.816   8.353 -0.3916  0.2259  0.4528
19889SOL    HW260862   3.109   2.893   8.423  0.2397  1.0443 -1.3876
19890SOL     OW60863   0.438   8.352   1.293 -0.1197 -0.4014 -0.4972
19890SOL    HW160864   0.405   8.342   1.204 -1.5344  0.5065 -0.1015
19890SOL    HW260865   0.361   8.367   1.346  0.7886  0.1135  0.7301
19891SOL     OW60866   1.174   1.964   3.184  0.4939 -0.1430 -0.3358
19891SOL    HW160867   1.125   2.020   3.244  0.9623 -0.0295 -0.0511
19891SOL    HW260868   1.107   1.911   3.140 -0.0957  1.5301 -1.5521
19892SOL     OW60869   6.659   4.890   0.511 -0.1836 -0.8707 -0.6465
19892SOL    HW160870   6.620   4.869   0.596 -0.3742  3.0764  0.4757
19892SOL    HW260871   6.588   4.879   0.448 -1.3157  0.1691  0.4052
19893SOL     OW60872   7.686   5.299   1.767 -0.2723  0.0209  0.2471
19893SOL    HW160873   7.647   5.381   1.738  0.3467  0.2900  0.1480
19893SOL    HW260874   7.717   5.317   1.856  1.6900  0.5530 -0.4950
19894SOL     OW60875   4.433   6.265   2.819 -0.3568 -0.1030 -0.3817
19894SOL    HW160876   4.430   6.352   2.777  0.0685  0.2152  0.2290
19894SOL    HW260877   4.438   6.204   2.746 -2.1241  0.2977 -0.8772
19895SOL     OW60878   1.208   3.483   7.426  0.1386  0.2441 -0.2691
19895SOL    HW160879   1.225   3.560   7.480  1.1464  0.3543 -0.7145
19895SOL    HW260880   1.265   3.415   7.464  0.3466  0.1325 -0.7768
19896SOL     OW60881   6.065   1.896   4.390  0.1579  0.2175  0.0113
19896SOL    HW160882   6.095   1.827   4.449  0.6216  0.0476 -0.4236
19896SOL    HW260883   6.144   1.946   4.369  0.5462 -1.2741 -2.5335
19897SOL     OW60884   1.340   0.881   7.793  0.2603 -0.2607 -0.4637
19897SOL    HW160885   1.404   0.839   7.735 -0.4382 -1.1395 -0.6294
19897SOL    HW260886   1.304   0.808   7.844  0.7518  0.4761  0.9868
19898SOL     OW60887   2.204   6.021   4.427 -0.1624 -0.1031  0.7542
19898SOL    HW160888   2.128   6.045   4.374  0.8774  0.0121 -0.7465
19898SOL    HW260889   2.258   6.100   4.430  1.2374 -0.9572 -0.6057
19899SOL     OW60890   8.489   6.116   7.942  0.0087 -0.3304 -0.2362
19899SOL    HW160891   8.552   6.169   7.893 -0.7640 -0.3794 -1.3068
19899SOL    HW260892   8.404   6.154   7.921 -0.2562  0.7318  2.4214
19900SOL     OW60893   4.528   3.338   0.643 -0.2147  0.1322  0.4452
19900SOL    HW160894   4.489   3.293   0.568  0.7644  0.9203 -0.5825
19900SOL    HW260895   4.457   3.343   0.707 -0.4097 -2.6698  0.5641
19901SOL     OW60896   5.552   0.105   2.467 -0.1347 -0.3498  0.6422
19901SOL    HW160897   5.609   0.078   2.538 -0.8494 -0.7300  1.0824
19901SOL    HW260898   5.478   0.148   2.510  0.7129  1.8722 -0.0100
19902SOL     OW60899   1.739   1.420   2.838 -0.0027 -0.1745 -0.1011
19902SOL    HW160900   1.689   1.391   2.762  0.0757  0.3493 -0.3634
19902SOL    HW260901   1.702   1.506   2.859 -0.0590 -0.3390  0.4876
19903SOL     OW60902   1.613   0.480   4.335  0.7632 -0.3123  0.7914
19903SOL    HW160903   1.602   0.553   4.396  0.8143  2.2206 -1.9874
19903SOL    HW260904   1.648   0.521   4.256  1.5501 -3.5323 -0.6664
19904SOL     OW60905   0.231   3.987   7.478  0.2761  0.5024  0.2855
19904SOL    HW160906   0.162   4.054   7.479  1.3667  1.6513  1.1898
19904SOL    HW260907   0.183   3.904   7.475 -1.1375  1.2810  0.3657
19905SOL     OW60908   2.684   4.395   3.794  0.2375  0.4144 -0.2757
19905SOL    HW160909   2.669   4.354   3.709 -1.4100 -1.7128  0.9436
19905SOL    HW260910   2.614   4.459   3.803  1.0396  1.4150 -0.9168
19906SOL     OW60911   0.279   8.414   1.074 -0.2011  0.1317 -0.5305
19906SOL    HW160912   0.223   8.337   1.074 -2.3540  1.5911  0.3283
19906SOL    HW260913   0.353   8.391   1.019 -1.2048 -2.2197 -0.9869
19907SOL     OW60914   3.415   0.806   4.825  0.1318 -0.0709 -0.0004
19907SOL    HW160915   3.363   0.811   4.745 -1.7320 -1.5193  1.0281
19907SOL    HW260916   3.489   0.749   4.802 -0.3320 -0.3911 -0.7386
19908SOL     OW60917   4.356   5.316   0.082 -0.5445  0.2525  0.0809
19908SOL    HW160918   4.394   5.393   0.039 -2.9884  0.9857 -0.9068
19908SOL    HW260919   4.407   5.306   0.162  0.0785  2.6981  0.0608
19909SOL     OW60920   1.032   5.739   7.989 -0.3378  0.3553  0.1755
19909SOL    HW160921   1.093   5.767   7.921  0.3586 -0.8854  0.2569
19909SOL    HW260922   1.011   5.648   7.966 -0.5069  0.0905  1.3089
19910SOL     OW60923   6.693   5.156   6.125 -0.0317  0.6129  0.3491
19910SOL    HW160924   6.691   5.183   6.033  0.4262 -2.0683 -0.5362
19910SOL    HW260925   6.605   5.121   6.142  0.8261 -2.0279 -0.1945
19911SOL     OW60926   0.977   6.966   0.683  0.1157  0.5621  0.1606
19911SOL    HW160927   0.981   7.004   0.771  2.2197  3.6059 -1.0864
19911SOL    HW260928   1.067   6.941   0.663 -0.7205 -2.5108 -0.2914
19912SOL     OW60929   7.731   4.022   0.185  0.2580 -0.0341  0.3584
19912SOL    HW160930   7.759   4.113   0.199  2.1114 -0.3926 -0.6696
19912SOL    HW260931   7.747   4.006   0.092 -3.3285 -0.3999 -0.3460
19913SOL     OW60932   3.154   0.068   2.664  0.0773 -0.0015  0.2053
19913SOL    HW160933   3.068   0.083   2.704  0.4093  0.2570  0.8400
19913SOL    HW260934   3.178   0.152   2.626 -0.2966 -0.2830 -0.6658
19914SOL     OW60935   5.459   5.414   1.121 -0.2292 -0.0255  0.3745
19914SOL    HW160936   5.455   5.382   1.031 -1.3776 -0.9549  0.7218
19914SOL    HW260937   5.378   5.381   1.161 -0.0864  0.9892  1.5434
19915SOL     OW60938   0.708   4.310   2.458  0.0040 -0.1309  0.1350
19915SOL    HW160939   0.758   4.274   2.385  0.6358  0.0474  0.4715
19915SOL    HW260940   0.774   4.351   2.514 -0.3675 -1.0144  1.2507
19916SOL     OW60941   3.343   3.239   0.705 -0.3298  0.2904 -0.0611
19916SOL    HW160942   3.361   3.313   0.647  0.9253 -0.2394 -0.3937
19916SOL    HW260943   3.316   3.169   0.645  0.4475 -0.1001  0.0315
19917SOL     OW60944   4.815   2.623   0.949  0.0315 -0.5588  0.2695
19917SOL    HW160945   4.854   2.680   0.882  0.1965  0.0036  0.8339
19917SOL    HW260946   4.741   2.674   0.982  2.0185  0.7869  3.0274
19918SOL     OW60947   1.813   5.115   4.647  0.1358  0.0074 -0.0273
19918SOL    HW160948   1.765   5.129   4.729  0.5970 -1.7765  0.5956
19918SOL    HW260949   1.898   5.157   4.661  0.0171  0.1784  0.1961
19919SOL     OW60950   1.501   0.163   4.717  0.2574 -0.0678  0.0465
19919SOL    HW160951   1.476   0.073   4.699  1.3843 -0.4042  0.1024
19919SOL    HW260952   1.538   0.195   4.635 -1.8679  1.0014 -0.5809
19920SOL     OW60953   6.583   1.445   0.458  0.2146  0.4126 -0.1633
19920SOL    HW160954   6.592   1.477   0.548  0.6630  1.0167 -0.4133
19920SOL    HW260955   6.657   1.385   0.447 -0.2176 -0.1693  0.0779
19921SOL     OW60956   8.013   5.666   6.086 -0.0619 -0.7240 -0.0553
19921SOL    HW160957   8.103   5.670   6.055 -0.7458 -1.1286 -2.2452
19921SOL    HW260958   7.961   5.654   6.007 -2.2054  1.1446  0.9642
19922SOL     OW60959   3.144   0.125   5.928 -0.1584 -0.6498 -0.1177
19922SOL    HW160960   3.064   0.123   5.981 -0.7382 -0.1550 -0.9434
19922SOL    HW260961   3.182   0.038   5.937  0.9201  0.0093  2.8011
19923SOL     OW60962   2.797   7.463   7.701 -0.0141  0.8466  0.6910
19923SOL    HW160963   2.864   7.402   7.670 -1.1185  0.0464 -0.2169
19923SOL    HW260964   2.803   7.538   7.641  0.5601  1.1140  1.0785
19924SOL     OW60965   4.742   2.002   8.493  0.1244 -0.3505 -0.4182
19924SOL    HW160966   4.827   1.986   8.451 -0.4517 -2.1692 -0.9962
19924SOL    HW260967   4.762   2.057   8.568  1.9956 -1.6583  0.1103
19925SOL     OW60968   1.694   3.022   0.264  0.8254  0.3314 -0.5176
19925SOL    HW160969   1.639   3.026   0.343  1.5394  1.3342 -0.0467
19925SOL    HW260970   1.635   3.047   0.193  0.5961  1.1984 -0.0465
19926SOL     OW60971   2.174   3.247   8.317 -0.4237  0.6378 -0.6972
19926SOL    HW160972   2.229   3.210   8.248 -2.2308 -0.6126 -1.5326
19926SOL    HW260973   2.215   3.219   8.398  1.4041  1.6296 -1.2204
19927SOL     OW60974   4.981   2.290   4.588 -0.0230 -0.3869 -0.2524
19927SOL    HW160975   5.027   2.243   4.519  3.0689  1.2178  0.5586
19927SOL    HW260976   4.919   2.226   4.623  0.7520 -2.3191 -2.1980
19928SOL     OW60977   7.995   3.583   4.490  0.1706 -0.7284  0.0179
19928SOL    HW160978   8.022   3.647   4.556  1.2717 -0.7646 -0.3745
19928SOL    HW260979   7.900   3.588   4.489  0.2110  0.4992  0.4038
19929SOL     OW60980   6.682   8.010   2.686  0.2766 -0.4700 -0.5259
19929SOL    HW160981   6.721   8.097   2.694 -2.0347  0.7363 -1.6046
19929SOL    HW260982   6.666   7.983   2.777 -0.0285  0.7608 -0.1905
19930SOL     OW60983   6.391   0.127   2.619  0.4763 -0.0850  0.0319
19930SOL    HW160984   6.309   0.081   2.600  1.3341 -2.1944  1.1436
19930SOL    HW260985   6.392   0.136   2.714  2.6052 -2.4246  0.3530
19931SOL     OW60986   1.870   5.646   7.720  0.2485 -0.0815  0.0910
19931SOL    HW160987   1.920   5.626   7.799 -0.2355 -0.1401  0.3851
19931SOL    HW260988   1.842   5.561   7.687  0.8603 -0.0889 -0.4164
19932SOL     OW60989   7.307   7.024   5.783 -0.2895 -0.3413  0.2827
19932SOL    HW160990   7.356   7.106   5.783 -0.7713 -0.0498  0.7403
19932SOL    HW260991   7.284   7.010   5.692  0.0903 -0.1478  0.1529
19933SOL     OW60992   8.484   4.130   0.757 -0.3238 -0.8419 -0.1555
19933SOL    HW160993   8.455   4.192   0.690  0.8412 -0.9039 -0.7363
19933SOL    HW260994   8.446   4.164   0.838 -0.1342  0.3598 -0.5403
19934SOL     OW60995   5.890   5.613   6.936 -0.5011 -0.1676  0.3464
19934SOL    HW160996   5.832   5.544   6.904  0.0077 -0.1297 -0.6997
19934SOL    HW260997   5.970   5.567   6.962 -0.2973 -0.0269 -0.0140
19935SOL     OW60998   7.746   1.217   1.328 -0.2311 -0.0907  0.2181
19935SOL    HW160999   7.795   1.239   1.407  1.4393  1.2384 -1.1110
19935SOL    HW261000   7.667   1.271   1.333  0.0792  0.3241  0.7523
19936SOL     OW61001   7.387   1.073   2.055  0.7342  0.9324  0.2526
19936SOL    HW161002   7.374   1.005   1.989 -0.6766  0.9439  0.4800
19936SOL    HW261003   7.476   1.103   2.042  0.8308  0.1763 -0.9336
19937SOL     OW61004   0.219   1.207   7.495  0.0326 -0.2987  0.3211
19937SOL    HW161005   0.253   1.168   7.415 -1.6702  1.8684 -1.5997
19937SOL    HW261006   0.293   1.257   7.530  0.9828 -1.7814  0.5335
19938SOL     OW61007   3.920   5.810   5.739  0.2469  0.0179  0.1174
19938SOL    HW161008   3.960   5.887   5.699  1.3588 -0.6028 -0.0119
19938SOL    HW261009   3.965   5.800   5.823 -0.5849  0.0773  0.5817
19939SOL     OW61010   3.295   6.794   2.991  0.0144  0.1046  0.1760
19939SOL    HW161011   3.256   6.809   2.905  0.7041 -1.0191 -0.3637
19939SOL    HW261012   3.273   6.872   3.042  0.2072  1.1207 -1.2433
19940SOL     OW61013   5.314   3.994   4.026  0.4072  0.1457 -0.0031
19940SOL    HW161014   5.261   4.069   3.999  0.7778  0.4344  0.0664
19940SOL    HW261015   5.404   4.023   4.013  0.5457 -0.5262 -0.6264
19941SOL     OW61016   4.685   6.941   7.009 -0.0249  0.7096  0.4761
19941SOL    HW161017   4.738   6.876   6.963  0.4528  0.2766  1.5910
19941SOL    HW261018   4.597   6.905   7.010  0.1871  0.1939  0.8547
19942SOL     OW61019   8.336   6.741   4.026 -0.7217 -0.1662  0.2616
19942SOL    HW161020   8.254   6.721   3.981  0.0544 -1.0047 -0.8218
19942SOL    HW261021   8.308   6.780   4.109 -2.2099 -0.2958 -0.1410
19943SOL     OW61022   6.308   2.852   3.598  0.7372  0.1864 -0.3603
19943SOL    HW161023   6.285   2.887   3.684  1.9047 -0.5316  0.2637
19943SOL    HW261024   6.256   2.904   3.537  0.5729  1.3279  0.7008
19944SOL     OW61025   1.754   1.037   2.396  0.1954  0.1762  0.0613
19944SOL    HW161026   1.663   1.006   2.401  0.4797 -0.9562 -1.2926
19944SOL    HW261027   1.794   1.008   2.478 -0.7153  0.9120  0.7895
19945SOL     OW61028   2.862   1.695   5.514  0.3049 -0.2861  0.2436
19945SOL    HW161029   2.932   1.726   5.572  0.3019 -0.5845  0.4093
19945SOL    HW261030   2.822   1.775   5.480  0.1643 -0.1013  0.8267
19946SOL     OW61031   1.327   4.750   5.427 -0.3015  0.0518  0.1132
19946SOL    HW161032   1.265   4.754   5.354  0.0166  1.8617 -0.1154
19946SOL    HW261033   1.409   4.724   5.386 -0.5059 -0.6031  0.1155
19947SOL     OW61034   3.563   7.462   4.382 -0.2255 -0.5716 -0.1396
19947SOL    HW161035   3.648   7.420   4.374 -0.3359 -0.5689 -1.5374
19947SOL    HW261036   3.583   7.553   4.405  0.1514 -0.5373 -0.5970
19948SOL     OW61037   2.153   0.280   7.196 -0.2346 -0.3480  0.2090
19948SOL    HW161038   2.095   0.258   7.269 -1.0821  0.8606 -0.0613
19948SOL    HW261039   2.115   0.235   7.120  1.0565 -2.2020  0.5925
19949SOL     OW61040   5.854   4.985   8.317 -0.1781 -0.3430 -0.3008
19949SOL    HW161041   5.909   4.973   8.239  0.9662  0.5103  0.3394
19949SOL    HW261042   5.795   5.057   8.294  1.5099  1.3129  0.2617
19950SOL     OW61043   4.401   0.376   4.233 -0.2125  0.0563  0.4156
19950SOL    HW161044   4.321   0.342   4.194 -0.5164  0.1266  0.9583
19950SOL    HW261045   4.388   0.365   4.328  0.4182  0.0682  0.5085
19951SOL     OW61046   2.091   6.005   2.318  0.3745 -0.1856  0.1933
19951SOL    HW161047   2.097   6.008   2.413 -0.7669 -1.9062  0.3672
19951SOL    HW261048   2.174   6.042   2.287  1.0329 -0.1918  1.8516
19952SOL     OW61049   7.000   4.565   4.199  0.4759  0.2003 -0.0927
19952SOL    HW161050   6.969   4.558   4.108  0.9143  1.3236 -0.3480
19952SOL    HW261051   6.923   4.593   4.248  0.5602  0.9203 -0.3615
19953SOL     OW61052   0.360   6.888   3.244 -0.2793 -0.1734  0.4569
19953SOL    HW161053   0.342   6.969   3.292 -1.1193  0.8782 -1.5490
19953SOL    HW261054   0.438   6.853   3.286 -0.3838  1.2143  1.9225
19954SOL     OW61055   0.863   6.824   7.844 -0.2158 -0.0903 -0.2049
19954SOL    HW161056   0.938   6.871   7.881  0.5299 -1.5941  0.2590
19954SOL    HW261057   0.790   6.886   7.853  0.7112  0.9503  0.4501
19955SOL     OW61058   0.544   5.538   5.806 -0.0857 -0.6366 -0.3586
19955SOL    HW161059   0.543   5.444   5.824  0.1226 -0.2811  1.8065
19955SOL    HW261060   0.628   5.568   5.841 -0.9777  0.6454  0.7433
19956SOL     OW61061   2.660   6.102   6.064  0.3611 -0.1590 -0.2458
19956SOL    HW161062   2.661   6.196   6.049 -2.5828  0.0018  0.0253
19956SOL    HW261063   2.641   6.063   5.979  0.6655 -0.4771 -0.1753
19957SOL     OW61064   7.037   6.447   4.666  0.0978 -0.0390 -0.9703
19957SOL    HW161065   6.975   6.506   4.623  0.5062  0.1287 -1.3345
19957SOL    HW261066   6.994   6.423   4.749 -0.5637 -0.1343 -1.3366
19958SOL     OW61067   3.590   1.646   4.086  0.5068 -0.0009 -0.0960
19958SOL    HW161068   3.657   1.699   4.044  1.1544  0.8300  1.9002
19958SOL    HW261069   3.556   1.700   4.157 -1.3129 -0.9402 -0.1650
19959SOL     OW61070   0.529   0.062   7.902  0.2999  0.1888  0.3880
19959SOL    HW161071   0.617   0.089   7.875  1.6280 -2.5234  1.6318
19959SOL    HW261072   0.542  -0.023   7.944 -3.1150 -0.8606 -0.4350
19960SOL     OW61073   2.366   3.952   6.233  0.1306  0.3707  0.3792
19960SOL    HW161074   2.340   3.943   6.325 -0.8032  0.8401  0.1799
19960SOL    HW261075   2.381   3.862   6.203 -0.6930  0.1177  0.6867
19961SOL     OW61076   2.968   3.812   0.931 -0.4185  0.1602  0.0365
19961SOL    HW161077   2.985   3.725   0.896 -0.9078  0.1846 -0.2669
19961SOL    HW261078   3.053   3.855   0.930 -0.3568  0.0311 -0.7727
19962SOL     OW61079   2.626   7.913   8.499  0.5348  0.2183  0.2221
19962SOL    HW161080   2.634   7.837   8.557 -1.0525  0.7547  1.2149
19962SOL    HW261081   2.649   7.988   8.555  4.8836  0.3902 -1.4554
19963SOL     OW61082   4.779   2.605   3.746  0.1541  0.1028 -0.3162
19963SOL    HW161083   4.693   2.593   3.705 -0.0328  2.9931 -0.9737
19963SOL    HW261084   4.761   2.603   3.840 -1.2091  3.3823 -0.3925
19964SOL     OW61085   3.193   4.670   6.824  0.5943 -0.4118  0.4165
19964SOL    HW161086   3.251   4.736   6.861 -2.4584  1.2211  2.7535
19964SOL    HW261087   3.154   4.713   6.748  0.3658 -0.4462  0.5152
19965SOL     OW61088   1.710   1.430   0.107  0.4276  0.2585  0.5744
19965SOL    HW161089   1.761   1.511   0.101  0.1291  0.4783  0.9789
19965SOL    HW261090   1.748   1.383   0.181  0.8527 -0.1543  0.1021
19966SOL     OW61091   2.812   1.943   5.374 -0.3048 -0.1126 -0.5527
19966SOL    HW161092   2.870   1.912   5.305 -0.5710  1.0745 -1.3299
19966SOL    HW261093   2.818   2.038   5.370 -3.2401  0.1122 -1.4948
19967SOL     OW61094   7.438   1.057   5.726 -0.0027 -0.1639 -0.0443
19967SOL    HW161095   7.489   0.978   5.705  0.8605  0.4833 -0.4084
19967SOL    HW261096   7.351   1.023   5.750  0.1038 -1.1737 -0.9982
19968SOL     OW61097   7.067   5.333   2.277  0.2376 -0.1204 -0.3795
19968SOL    HW161098   7.077   5.279   2.198  0.5947 -0.3225 -0.2000
19968SOL    HW261099   7.134   5.401   2.267  1.0313 -0.7821  0.2612
19969SOL     OW61100   5.086   4.860   3.398 -0.1678  0.2326  0.2599
19969SOL    HW161101   5.138   4.873   3.318  0.1568  0.7059  0.5390
19969SOL    HW261102   5.062   4.949   3.425 -0.1381  0.0863  0.7763
19970SOL     OW61103   5.133   2.342   1.390 -0.6615  0.1290 -0.0488
19970SOL    HW161104   5.184   2.366   1.467  0.2755  0.5984 -0.8060
19970SOL    HW261105   5.139   2.417   1.331 -2.9341  0.5579  0.1609
19971SOL     OW61106   8.248   5.564   5.139 -0.2393 -0.4583  0.2339
19971SOL    HW161107   8.331   5.609   5.123 -0.6234 -0.5538 -2.4528
19971SOL    HW261108   8.244   5.554   5.234  2.4141  0.2827  0.4951
19972SOL     OW61109   0.757   0.807   5.400 -0.4463 -0.3796  0.2076
19972SOL    HW161110   0.842   0.807   5.444  0.4690 -1.0094 -1.5034
19972SOL    HW261111   0.714   0.728   5.433  0.0415 -0.6013  0.3299
19973SOL     OW61112   7.537   1.468   8.436 -0.6459  0.0642 -0.0038
19973SOL    HW161113   7.517   1.464   8.530 -1.5912 -0.2670 -0.2077
19973SOL    HW261114   7.583   1.386   8.418 -1.3284 -0.3138 -0.0227
19974SOL     OW61115   7.783   4.672   7.217 -0.5127 -0.1516 -0.1936
19974SOL    HW161116   7.834   4.603   7.260 -0.5085 -0.8483 -1.2752
19974SOL    HW261117   7.714   4.625   7.170 -0.2542  0.5384 -1.2975
19975SOL     OW61118   7.014   6.400   3.725  0.3295 -0.3422  0.0689
19975SOL    HW161119   7.020   6.476   3.666 -0.2309 -1.0788 -0.9715
19975SOL    HW261120   7.075   6.336   3.688  1.6851 -0.0081  1.6116
19976SOL     OW61121   7.511   1.234   7.940  0.0510  0.4324  0.0212
19976SOL    HW161122   7.604   1.234   7.920  0.4058 -0.6872  1.5164
19976SOL    HW261123   7.470   1.189   7.866  0.9059 -0.5954  0.1612
19977SOL     OW61124   0.543   5.351   2.117  0.0527 -0.0234 -0.4027
19977SOL    HW161125   0.592   5.432   2.128 -1.0463  0.5698  0.3600
19977SOL    HW261126   0.487   5.346   2.195 -3.5447  1.0642 -2.6399
19978SOL     OW61127   5.138   5.150   3.975  0.4036 -0.0064 -0.4022
19978SOL    HW161128   5.155   5.145   3.881 -0.3340 -3.2354 -0.4685
19978SOL    HW261129   5.169   5.067   4.010 -0.1244  0.7645  2.1141
19979SOL     OW61130   3.787   4.559   7.076  0.7469 -0.5056 -0.5041
19979SOL    HW161131   3.780   4.480   7.129 -0.9488  0.3880  0.7160
19979SOL    HW261132   3.835   4.621   7.131  1.4659 -0.4475 -1.1739
19980SOL     OW61133   2.722   3.180   1.850 -0.4209 -0.0970 -1.3391
19980SOL    HW161134   2.745   3.113   1.914 -0.2634  0.6233 -0.6252
19980SOL    HW261135   2.640   3.217   1.882  0.6624  1.6399 -0.4114
19981SOL     OW61136   6.635   6.976   5.604  0.1099  0.0255 -0.0637
19981SOL    HW161137   6.612   7.040   5.536 -0.7390  1.0209  1.1265
19981SOL    HW261138   6.558   6.921   5.612  0.7983 -1.1427 -1.0064
19982SOL     OW61139   0.668   1.644   7.258  0.3314  0.3267  0.1413
19982SOL    HW161140   0.715   1.707   7.203  0.9235 -0.7208 -0.5933
19982SOL    HW261141   0.731   1.574   7.273 -0.5264 -0.4143  0.3596
19983SOL     OW61142   8.131   2.488   7.643 -0.2380  0.3320 -0.4683
19983SOL    HW161143   8.175   2.445   7.717  0.1306  0.1934 -0.7680
19983SOL    HW261144   8.183   2.464   7.567 -0.3339  0.8862 -0.7104
19984SOL     OW61145   4.882   4.714   6.727  0.2596  0.3805  0.1503
19984SOL    HW161146   4.832   4.680   6.802  1.4631 -0.1600  0.7325
19984SOL    HW261147   4.876   4.644   6.662  1.1927 -0.2033  0.6590
19985SOL     OW61148   5.072   4.042   6.384 -0.6639  0.1020  0.0535
19985SOL    HW161149   5.022   4.012   6.308 -1.3743  0.3570  0.4049
19985SOL    HW261150   5.064   4.137   6.382  0.7997  0.2238 -0.5359
19986SOL     OW61151   7.465   1.159   4.054  0.5744  0.0800  0.3401
19986SOL    HW161152   7.381   1.148   4.098  1.7370  1.5751  3.1924
19986SOL    HW261153   7.464   1.248   4.021  0.5767 -0.3127 -0.7507
19987SOL     OW61154   6.718   6.519   1.949  0.0435  0.0671 -0.4632
19987SOL    HW161155   6.810   6.542   1.941  0.5000 -1.3952  0.3131
19987SOL    HW261156   6.681   6.584   2.008  0.5821  0.6190 -0.7288
19988SOL     OW61157   2.809   2.114   2.228 -0.3891 -0.1092  0.1968
19988SOL    HW161158   2.812   2.130   2.323 -0.4483  1.1070  0.0127
19988SOL    HW261159   2.723   2.148   2.201 -0.6044 -0.9641 -0.2138
19989SOL     OW61160   4.767   6.235   4.241  0.3823 -0.3316 -0.7352
19989SOL    HW161161   4.812   6.158   4.207  0.9013  0.5467 -2.1383
19989SOL    HW261162   4.837   6.298   4.261  0.0323 -0.5226  1.2957
19990SOL     OW61163   5.296   1.258   8.007 -0.0321  0.2418 -0.2304
19990SOL    HW161164   5.381   1.301   8.013  1.8971 -2.7663 -2.8373
19990SOL    HW261165   5.264   1.254   8.097  2.7843  1.1315  0.8944
19991SOL     OW61166   6.884   1.624   5.911 -0.3160  0.2024 -0.4731
19991SOL    HW161167   6.836   1.548   5.879 -0.2436 -0.1832  0.3226
19991SOL    HW261168   6.974   1.610   5.881 -0.1375 -0.4150  0.3090
19992SOL     OW61169   4.450   0.034   6.000  0.0243  0.1356  0.3134
19992SOL    HW161170   4.481   0.071   5.918  1.2083 -0.8327  0.2965
19992SOL    HW261171   4.361   0.068   6.010  0.4239  1.5155 -0.5736
19993SOL     OW61172   6.581   7.979   5.515  0.0675 -0.5826 -1.1931
19993SOL    HW161173   6.531   8.053   5.548  1.5324  0.0449 -0.2841
19993SOL    HW261174   6.563   7.978   5.421  0.3967  1.2488 -1.3185
19994SOL     OW61175   7.336   3.413   0.067  0.5095 -0.1703 -0.2626
19994SOL    HW161176   7.406   3.371   0.117  1.6937  0.8539 -1.0288
19994SOL    HW261177   7.329   3.361  -0.013  1.5684  0.6890 -0.9411
19995SOL     OW61178   0.078   2.863   2.624 -0.0478 -0.4130 -0.6185
19995SOL    HW161179   0.018   2.931   2.594  0.4599 -0.7990 -2.6168
19995SOL    HW261180   0.165   2.895   2.601  0.1339 -2.1784 -2.6559
19996SOL     OW61181   1.773   3.415   7.496 -0.0693  0.5690  0.2116
19996SOL    HW161182   1.799   3.334   7.541 -1.5035 -0.4777 -0.7576
19996SOL    HW261183   1.826   3.483   7.538 -0.5987 -0.4741  2.8098
19997SOL     OW61184   8.247   0.381   0.035 -0.4618  0.5384 -0.3275
19997SOL    HW161185   8.249   0.441  -0.040  1.5817 -0.7412 -1.4082
19997SOL    HW261186   8.339   0.369   0.058 -0.7130 -2.4234 -0.4368
19998SOL     OW61187   5.199   8.037   3.124  0.4903  0.6341  0.2296
19998SOL    HW161188   5.153   8.118   3.101  0.1715  0.8183  1.4467
19998SOL    HW261189   5.237   8.054   3.209  2.2751  0.2362 -0.4445
19999SOL     OW61190   1.067   5.184   2.878  0.2980 -0.1283  0.1515
19999SOL    HW161191   1.115   5.238   2.816 -0.2043  0.1442 -0.0059
19999SOL    HW261192   1.076   5.229   2.962  0.8585 -0.4223  0.2512
20000SOL     OW61193   5.796   6.858   1.410  0.3518  0.4208  0.3138
20000SOL    HW161194   5.778   6.845   1.503 -1.4978  0.4959 -0.0098
20000SOL    HW261195   5.715   6.893   1.374  1.3474  1.3306 -1.1606
20001SOL     OW61196   6.776   2.606   3.006 -0.2073  0.9115  0.0857
20001SOL    HW161197   6.802   2.515   3.021 -0.6814  0.8855  0.8016
20001SOL    HW261198   6.680   2.603   3.004 -0.2070  1.1513 -1.5488
20002SOL     OW61199   7.195   4.602   4.554  0.3481  0.3553  0.2530
20002SOL    HW161200   7.207   4.662   4.627 -0.4466 -0.9967  1.5526
20002SOL    HW261201   7.107   4.623   4.521  0.1821  0.1021  0.5293
20003SOL     OW61202   4.804   6.149   3.858 -0.6133  0.0803 -0.5447
20003SOL    HW161203   4.856   6.224   3.829  1.5488 -1.0483  0.1735
20003SOL    HW261204   4.713   6.180   3.856  0.0721  2.1968 -1.7281
20004SOL     OW61205   1.660   1.611   5.794  0.2207  0.0341 -0.3025
20004SOL    HW161206   1.705   1.670   5.855  0.9192 -0.7225 -0.0487
20004SOL    HW261207   1.653   1.660   5.713 -0.4979  0.9753  0.3023
20005SOL     OW61208   0.694   2.353   1.403 -0.0687  0.0118 -0.9708
20005SOL    HW161209   0.673   2.369   1.311  0.6105  2.2563 -0.7996
20005SOL    HW261210   0.619   2.388   1.451  0.0676 -0.1442 -0.6414
20006SOL     OW61211   5.737   5.364   2.913  0.4033 -0.1274 -0.3078
20006SOL    HW161212   5.731   5.416   2.833  0.4274  1.7619  0.8593
20006SOL    HW261213   5.754   5.428   2.982 -0.3962 -1.6011  1.3332
20007SOL     OW61214   7.974   5.195   7.375  0.0158 -0.0770  0.2436
20007SOL    HW161215   8.050   5.155   7.417  0.9044  1.5300  0.2381
20007SOL    HW261216   7.936   5.125   7.322  2.3392 -0.5679 -0.8832
20008SOL     OW61217   5.696   3.561   7.484  0.3072 -0.2323 -0.2462
20008SOL    HW161218   5.618   3.600   7.444  0.2866 -0.8321 -0.8030
20008SOL    HW261219   5.665   3.521   7.565  0.2777  0.6457  0.1872
20009SOL     OW61220   1.159   2.295   8.222 -0.1960 -0.1346 -0.2767
20009SOL    HW161221   1.119   2.253   8.298 -0.8160  2.5707  0.9986
20009SOL    HW261222   1.106   2.266   8.148 -1.3160 -0.6628  0.7046
20010SOL     OW61223   6.978   1.178   6.390  0.1330  0.6260  0.0704
20010SOL    HW161224   7.016   1.261   6.419 -1.0541  1.2322 -0.0736
20010SOL    HW261225   7.052   1.118   6.387  0.8082  1.3487  1.3900
20011SOL     OW61226   5.322   8.501   4.310  0.1185 -0.0017 -0.1207
20011SOL    HW161227   5.328   8.407   4.292 -2.7145 -0.8673  2.5152
20011SOL    HW261228   5.389   8.516   4.378 -0.4610 -0.5272  0.5885
20012SOL     OW61229   6.356   5.785   3.747  0.1936  0.6378  0.2609
20012SOL    HW161230   6.397   5.869   3.726  1.9454 -0.0063  0.9441
20012SOL    HW261231   6.406   5.721   3.698 -1.0705 -0.0477 -0.1793
20013SOL     OW61232   6.018   5.728   5.300  0.1984  0.0204 -0.1642
20013SOL    HW161233   6.102   5.716   5.256 -0.1204  0.3984 -0.9038
20013SOL    HW261234   5.977   5.801   5.253 -0.2802  0.2470  0.5879
20014SOL     OW61235   6.079   7.127   7.233  0.1790  0.0723  0.0226
20014SOL    HW161236   6.171   7.103   7.231  0.1258 -0.3660  1.4584
20014SOL    HW261237   6.061   7.162   7.146  0.8441 -2.9766 -1.4960
20015SOL     OW61238   8.277   1.849   0.921  0.2627 -0.3009  0.8019
20015SOL    HW161239   8.259   1.785   0.990 -0.1701 -0.4527  0.5506
20015SOL    HW261240   8.260   1.802   0.839 -1.0126  0.3996  0.6337
20016SOL     OW61241   7.627   1.870   3.496  0.2150  0.2654 -0.5404
20016SOL    HW161242   7.561   1.849   3.430 -2.6984 -1.0988  2.4777
20016SOL    HW261243   7.601   1.957   3.528  0.5692  0.2073 -0.0919
20017SOL     OW61244   0.323   7.879   6.688 -0.1399  0.2782 -0.0452
20017SOL    HW161245   0.230   7.876   6.666  0.1700 -2.5174 -1.3754
20017SOL    HW261246   0.361   7.939   6.624 -0.5721 -1.2277 -1.8042
20018SOL     OW61247   4.677   4.216   5.690  0.1059 -0.4910 -0.2148
20018SOL    HW161248   4.742   4.165   5.642  0.5246 -0.4401  0.2856
20018SOL    HW261249   4.652   4.287   5.631  0.1053 -0.8255 -0.6126
20019SOL     OW61250   4.434   6.080   7.400 -0.5304 -0.1095 -0.4132
20019SOL    HW161251   4.347   6.041   7.393  0.2148 -2.1899  0.7476
20019SOL    HW261252   4.487   6.030   7.337  0.2067 -0.1675  0.2344
20020SOL     OW61253   6.790   2.188   5.073 -0.8133 -0.0904  0.2477
20020SOL    HW161254   6.768   2.253   5.007  1.4352  1.0453  0.5032
20020SOL    HW261255   6.867   2.224   5.117 -0.5463 -2.1285  1.5943
20021SOL     OW61256   6.392   3.422   7.534 -0.2551  0.3824 -0.5118
20021SOL    HW161257   6.358   3.384   7.615 -2.0339  1.5266 -0.6741
20021SOL    HW261258   6.344   3.504   7.524  1.9165  1.6612 -1.2758
20022SOL     OW61259   6.359   5.966   3.209  0.1290 -0.1432  0.2424
20022SOL    HW161260   6.404   6.034   3.258  1.3383 -1.2053  0.6523
20022SOL    HW261261   6.359   5.890   3.267 -1.9966 -0.2699  0.1575
20023SOL     OW61262   2.223   7.483   4.147  0.1496  0.7053  0.9629
20023SOL    HW161263   2.296   7.443   4.195  0.8446 -0.0568 -0.6130
20023SOL    HW261264   2.242   7.577   4.148  0.4147  0.6476  1.7311
20024SOL     OW61265   2.343   5.872   5.156  0.2871  0.1942 -0.1077
20024SOL    HW161266   2.307   5.940   5.100  0.3625 -0.5783 -1.1105
20024SOL    HW261267   2.435   5.864   5.129  0.3886 -0.0265  0.2863
20025SOL     OW61268   1.283   5.915   7.517 -0.0944 -0.5370 -0.0839
20025SOL    HW161269   1.217   5.980   7.539  0.6180 -0.2209  1.2189
20025SOL    HW261270   1.337   5.957   7.450 -0.7079 -0.4867 -0.5560
20026SOL     OW61271   6.961   2.725   2.715 -0.4807 -0.1424  0.1548
20026SOL    HW161272   6.886   2.769   2.754  0.9354  2.1803  0.4636
20026SOL    HW261273   6.949   2.736   2.621 -1.7628 -2.0593  0.0363
20027SOL     OW61274   2.492   6.389   2.157  0.1462 -0.1930 -0.0505
20027SOL    HW161275   2.471   6.483   2.154 -1.4549 -0.4819  0.7239
20027SOL    HW261276   2.566   6.379   2.098 -1.1399  1.1947 -2.0254
20028SOL     OW61277   2.227   5.534   4.570 -0.1573 -0.0104 -0.5646
20028SOL    HW161278   2.242   5.515   4.478 -0.4772  3.2992 -1.4367
20028SOL    HW261279   2.315   5.550   4.606 -0.1047 -0.3425 -0.5461
20029SOL     OW61280   0.325   3.922   2.227 -0.5456  0.2004 -0.3126
20029SOL    HW161281   0.244   3.871   2.235 -0.6246  0.3082 -0.4157
20029SOL    HW261282   0.320   3.985   2.299 -0.1479 -0.3425  0.2047
20030SOL     OW61283   2.834   0.327   0.945 -0.6188 -0.2716  0.6973
20030SOL    HW161284   2.810   0.384   0.871  0.9740  0.7622  0.9268
20030SOL    HW261285   2.908   0.372   0.986 -0.0837 -1.9397  1.6204
20031SOL     OW61286   4.250   7.952   0.894 -0.5039  0.2825 -0.0820
20031SOL    HW161287   4.218   8.024   0.839 -0.4539  0.2562 -0.1454
20031SOL    HW261288   4.312   7.993   0.954 -1.5519  0.5530  0.8537
20032SOL     OW61289   8.250   0.553   2.904 -0.8713  0.2822 -0.1726
20032SOL    HW161290   8.261   0.642   2.871 -0.6371  0.7667  1.1448
20032SOL    HW261291   8.237   0.500   2.826  1.6361  1.0590 -1.2196
20033SOL     OW61292   6.801   3.604   8.228  0.3569 -0.0611  0.5577
20033SOL    HW161293   6.806   3.521   8.276 -0.2702 -1.6319 -1.8803
20033SOL    HW261294   6.716   3.641   8.252  1.0377  0.4050  2.3882
20034SOL     OW61295   2.685   3.769   8.513  0.1727 -0.3043  0.3156
20034SOL    HW161296   2.677   3.796   8.604 -0.0479 -1.1362  0.5550
20034SOL    HW261297   2.692   3.850   8.464 -2.5862  0.3419  0.7814
20035SOL     OW61298   6.949   3.812   7.301  0.6095 -0.4851 -0.3711
20035SOL    HW161299   6.886   3.849   7.239 -0.7734 -1.9829  0.0742
20035SOL    HW261300   6.972   3.885   7.359  1.0782  0.6610 -1.9098
20036SOL     OW61301   5.125   4.212   4.106  0.3202 -0.1516  0.2458
20036SOL    HW161302   5.052   4.253   4.059  0.7658  1.1901  0.6625
20036SOL    HW261303   5.108   4.231   4.198  0.7346 -0.6196  0.4231
20037SOL     OW61304   0.123   0.656   5.771  0.2524  0.2684  0.1509
20037SOL    HW161305   0.038   0.683   5.736 -0.6395 -2.5043 -0.0698
20037SOL    HW261306   0.120   0.679   5.863 -0.7743  0.1408  0.1584
20038SOL     OW61307   0.760   4.683   3.982  0.0028 -0.1205 -0.2215
20038SOL    HW161308   0.840   4.629   3.985 -0.7330 -1.2707 -0.6093
20038SOL    HW261309   0.704   4.639   3.918 -1.2555  0.2337  0.6020
20039SOL     OW61310   4.377   0.229   8.543  0.4031 -0.5356  0.1992
20039SOL    HW161311   4.377   0.180   8.625  2.2819 -0.5640  0.2192
20039SOL    HW261312   4.329   0.173   8.482 -0.2249 -0.9272  1.0217
20040SOL     OW61313   7.260   6.796   7.652  0.0497  0.0564 -0.0159
20040SOL    HW161314   7.166   6.809   7.666 -0.0158  0.6943 -0.9915
20040SOL    HW261315   7.301   6.870   7.696  0.1867 -0.8444  1.4258
20041SOL     OW61316   7.345   1.900   2.624 -0.0369 -0.0220 -0.1457
20041SOL    HW161317   7.376   1.869   2.539 -0.3696 -0.4561 -0.1112
20041SOL    HW261318   7.257   1.863   2.633 -1.1842  2.3197 -0.8636
20042SOL     OW61319   5.597   1.475   1.651  0.3677 -0.4644  0.4529
20042SOL    HW161320   5.610   1.551   1.595  1.7872 -0.3675  0.8630
20042SOL    HW261321   5.539   1.506   1.721 -1.3420 -0.5656 -0.8615
20043SOL     OW61322   5.106   6.323   7.491  0.7580  0.1370 -0.2478
20043SOL    HW161323   5.088   6.355   7.579 -0.5911 -0.2870 -0.3494
20043SOL    HW261324   5.179   6.262   7.503 -1.1966 -2.1441  1.1086
20044SOL     OW61325   1.928   8.374   2.654 -0.5623 -0.4175  0.3816
20044SOL    HW161326   1.859   8.381   2.587 -0.9118  0.8278  0.8459
20044SOL    HW261327   1.881   8.376   2.737 -0.0034 -0.1341  0.6933
20045SOL     OW61328   1.771   5.756   2.739  0.4649 -0.3193 -0.3527
20045SOL    HW161329   1.780   5.839   2.786 -0.0999 -0.4813  0.0492
20045SOL    HW261330   1.803   5.690   2.801  0.1323 -0.4883 -0.3595
20046SOL     OW61331   4.224   0.056   8.418  0.6948  0.3501 -0.2834
20046SOL    HW161332   4.140   0.029   8.455  1.2321  0.2055  0.8905
20046SOL    HW261333   4.210   0.055   8.323 -1.0480  1.7126 -0.1102
20047SOL     OW61334   6.925   2.535   6.072  0.2300  0.1313 -0.6386
20047SOL    HW161335   6.892   2.501   5.989 -1.2373  0.1806 -0.1029
20047SOL    HW261336   6.848   2.572   6.116  0.8646 -0.3581  0.9764
20048SOL     OW61337   6.901   1.113   5.080  0.0985 -0.0443 -0.0343
20048SOL    HW161338   6.893   1.052   5.153 -0.6720 -0.3578 -0.3724
20048SOL    HW261339   6.988   1.096   5.043 -0.6719 -1.9745 -1.0402
20049SOL     OW61340   7.598   3.995   4.790  0.0096 -0.0911  0.4181
20049SOL    HW161341   7.622   4.061   4.855  1.8897 -0.5882  0.2877
20049SOL    HW261342   7.563   4.046   4.716  1.9057  0.8482  0.1030
20050SOL     OW61343   1.694   6.067   4.552  0.0164 -0.2986 -0.5450
20050SOL    HW161344   1.786   6.044   4.565  0.7436  1.0703 -2.8246
20050SOL    HW261345   1.655   5.990   4.511 -0.3330 -1.5027  1.8510
20051SOL     OW61346   0.946   5.422   1.331  0.2952 -0.0697 -0.1575
20051SOL    HW161347   0.967   5.446   1.240  1.3169  2.1818  0.6072
20051SOL    HW261348   1.029   5.390   1.367  0.2669  0.4627  0.3935
20052SOL     OW61349   5.975   4.821   5.958  0.4777 -0.6096 -0.0778
20052SOL    HW161350   6.026   4.860   6.030  0.7426  0.6634 -0.9254
20052SOL    HW261351   5.884   4.839   5.981  0.5454 -0.4597  0.0828
20053SOL     OW61352   1.675   1.238   2.088  0.0741 -0.0606  0.1498
20053SOL    HW161353   1.633   1.203   2.166  0.5292 -1.2862 -0.1452
20053SOL    HW261354   1.636   1.189   2.015  0.1250  0.6222 -0.3527
20054SOL     OW61355   2.399   0.581   4.111 -0.2906 -0.1779 -0.1011
20054SOL    HW161356   2.434   0.613   4.028  2.2914 -0.1496  0.8926
20054SOL    HW261357   2.458   0.617   4.177 -2.6009  0.2928  1.8398
20055SOL     OW61358   7.561   1.542   4.464 -0.1304 -0.0986  0.2107
20055SOL    HW161359   7.490   1.535   4.400  2.1396  0.8184 -2.6404
20055SOL    HW261360   7.534   1.614   4.522 -1.4284  0.4043 -0.9634
20056SOL     OW61361   0.997   7.242   5.876  0.0151 -0.2213 -0.1265
20056SOL    HW161362   0.983   7.204   5.789  0.3968 -1.5358  0.3587
20056SOL    HW261363   0.919   7.216   5.926 -0.2475  0.6078 -0.0845
20057SOL     OW61364   7.019   5.595   7.757 -0.2414  0.0206 -0.0739
20057SOL    HW161365   7.058   5.558   7.836 -2.4752 -0.6181  0.7879
20057SOL    HW261366   6.925   5.582   7.767 -0.6650  0.5984 -2.5104
20058SOL     OW61367   7.400   7.747   2.110 -0.2323  0.4064  0.2576
20058SOL    HW161368   7.440   7.698   2.039 -3.6044 -3.4739  0.6575
20058SOL    HW261369   7.359   7.823   2.068  1.2606  0.4432 -1.2057
20059SOL     OW61370   5.574   7.086   6.414 -0.0548 -0.6256 -0.4051
20059SOL    HW161371   5.662   7.061   6.442 -0.6608 -2.0447  0.3572
20059SOL    HW261372   5.517   7.052   6.483 -1.0044  3.2241  0.9714
20060SOL     OW61373   1.398   7.986   3.119  0.3362 -0.2543 -0.7110
20060SOL    HW161374   1.410   7.998   3.214 -1.1849  1.4160 -0.6684
20060SOL    HW261375   1.440   7.902   3.100  0.1811 -0.9172  1.5409
20061SOL     OW61376   0.499   6.718   4.512  0.0691 -0.0832  0.0547
20061SOL    HW161377   0.551   6.638   4.511  0.7573  0.3639 -0.6564
20061SOL    HW261378   0.493   6.745   4.421 -2.5897 -0.8603 -0.1012
20062SOL     OW61379   8.376   4.896   5.346  0.6771  0.1770 -0.3784
20062SOL    HW161380   8.325   4.957   5.293 -0.5697 -1.0602 -0.6546
20062SOL    HW261381   8.311   4.837   5.384  1.6235  0.4324  1.7729
20063SOL     OW61382   7.744   1.686   0.034 -0.2135  0.0532  0.1049
20063SOL    HW161383   7.830   1.653   0.063 -0.4075  0.6452  1.4581
20063SOL    HW261384   7.726   1.759   0.093 -2.2378 -0.8862  0.7515
20064SOL     OW61385   1.945   0.388   2.720  0.3028 -0.4029 -0.3259
20064SOL    HW161386   1.875   0.397   2.785  0.2084 -0.0463 -0.4725
20064SOL    HW261387   1.925   0.306   2.675  2.2683 -2.5380  2.3598
20065SOL     OW61388   4.398   7.944   5.870 -0.3923 -0.3487  0.0667
20065SOL    HW161389   4.425   8.019   5.923  2.0360 -1.0463 -0.0839
20065SOL    HW261390   4.419   7.970   5.780 -1.8139 -0.3011 -0.2756
20066SOL     OW61391   1.364   0.789   3.674 -0.1175  0.7878  0.2839
20066SOL    HW161392   1.436   0.810   3.734  0.5077 -0.1564 -0.1066
20066SOL    HW261393   1.322   0.873   3.657  0.3997  1.2386  1.1513
20067SOL     OW61394   4.594   7.170   6.403 -0.1886 -0.5039  0.0906
20067SOL    HW161395   4.552   7.200   6.484  0.2524  0.4785 -0.0379
20067SOL    HW261396   4.538   7.099   6.372 -2.1223  1.1637 -0.4066
20068SOL     OW61397   5.573   4.262   6.520  0.2403 -0.0100 -0.6519
20068SOL    HW161398   5.589   4.340   6.572 -1.3453  0.4456 -0.8054
20068SOL    HW261399   5.577   4.292   6.429 -0.4892 -0.0744 -0.7085
20069SOL     OW61400   7.723   3.765   4.822  0.4367  0.0411  0.1718
20069SOL    HW161401   7.689   3.851   4.796 -0.8360 -0.1715  1.0307
20069SOL    HW261402   7.648   3.722   4.864  1.5491 -0.8136  1.3219
20070SOL     OW61403   1.006   4.943   5.429  0.0170 -0.1514  0.5840
20070SOL    HW161404   1.080   4.893   5.394  1.2283  1.9030  0.0333
20070SOL    HW261405   0.938   4.936   5.361  0.1736 -0.9482  0.4941
20071SOL     OW61406   0.943   5.504   5.646  0.2679 -0.1510  0.1203
20071SOL    HW161407   1.037   5.511   5.657  0.4193 -1.3364 -0.3238
20071SOL    HW261408   0.908   5.508   5.735  0.8976 -1.7492  0.4706
20072SOL     OW61409   3.133   2.828   4.830 -0.1704  0.0348 -0.1931
20072SOL    HW161410   3.126   2.809   4.924  0.9727  1.1757  0.1561
20072SOL    HW261411   3.084   2.910   4.819  3.7813  2.7899  0.4849
20073SOL     OW61412   3.938   3.105   8.392  0.0576 -0.3975 -0.0166
20073SOL    HW161413   3.898   3.102   8.479  0.2195 -0.4149  0.0585
20073SOL    HW261414   3.979   3.192   8.388  1.0715 -0.8400  0.3936
20074SOL     OW61415   2.037   7.002   4.585 -0.2277 -0.3724 -0.2830
20074SOL    HW161416   1.979   7.012   4.510 -2.4689 -1.3438  1.1750
20074SOL    HW261417   2.076   6.915   4.574 -1.3614 -0.9668  0.1082
20075SOL     OW61418   6.441   2.296   1.183  0.5035  0.1620  0.4439
20075SOL    HW161419   6.504   2.362   1.154  0.6911 -0.1795  0.0720
20075SOL    HW261420   6.470   2.272   1.271  2.9418 -2.4318 -0.8911
20076SOL     OW61421   0.311   6.791   6.299 -0.2455  0.3939  0.3006
20076SOL    HW161422   0.356   6.872   6.320 -0.5361  0.2622  1.5349
20076SOL    HW261423   0.380   6.731   6.270  0.2154  0.5474  1.0586
20077SOL     OW61424   5.417   6.374   0.668  0.2225  0.2636 -1.0165
20077SOL    HW161425   5.403   6.459   0.710 -0.1066 -0.0732 -0.4181
20077SOL    HW261426   5.419   6.312   0.741  0.0774 -0.2887 -1.4727
20078SOL     OW61427   1.907   6.310   5.868 -0.2270  0.1968 -0.4222
20078SOL    HW161428   1.898   6.404   5.857 -0.5243  0.1694 -0.4164
20078SOL    HW261429   1.821   6.280   5.898 -0.0862 -0.0509 -0.2538
20079SOL     OW61430   0.451   3.381   0.784  0.1650 -0.1132  0.6278
20079SOL    HW161431   0.392   3.358   0.711 -0.4943  0.1107  1.0796
20079SOL    HW261432   0.526   3.422   0.742  0.1965 -0.7856  0.0014
20080SOL     OW61433   2.707   1.716   2.634 -0.5192  0.2359  0.7622
20080SOL    HW161434   2.637   1.678   2.688 -0.5048  0.2274  0.7749
20080SOL    HW261435   2.663   1.745   2.555 -0.4594 -0.2178  0.5562
20081SOL     OW61436   7.809   5.910   2.961 -0.5744 -0.5911 -0.2668
20081SOL    HW161437   7.823   5.817   2.942 -1.0707 -0.4039 -1.6554
20081SOL    HW261438   7.775   5.910   3.051  0.8003 -1.6135  0.2952
20082SOL     OW61439   4.433   5.181   7.631  0.6688 -0.5123 -0.2031
20082SOL    HW161440   4.479   5.116   7.578  0.4202 -1.7246  1.0191
20082SOL    HW261441   4.420   5.138   7.715  0.3653  1.0830  0.5917
20083SOL     OW61442   4.837   6.972   0.763 -0.3158  0.2834 -0.2214
20083SOL    HW161443   4.932   6.977   0.752 -0.2342 -1.6742 -0.8439
20083SOL    HW261444   4.804   7.055   0.727  0.9393 -0.3645 -3.1934
20084SOL     OW61445   1.283   4.925   4.706 -0.3967  0.3237  0.1230
20084SOL    HW161446   1.276   4.841   4.661  2.1839 -1.3545  2.5322
20084SOL    HW261447   1.226   4.917   4.782  1.1021  0.0185  1.2609
20085SOL     OW61448   6.286   1.627   1.836 -0.2537 -0.0779  0.1602
20085SOL    HW161449   6.338   1.706   1.851  0.1836  0.0023 -1.5604
20085SOL    HW261450   6.348   1.555   1.845 -0.3900 -0.1464  0.5518
20086SOL     OW61451   4.269   2.677   4.887 -0.2874 -0.1750  0.5033
20086SOL    HW161452   4.251   2.629   4.806 -0.2345  0.5922  0.0298
20086SOL    HW261453   4.251   2.768   4.865  2.4634  0.4489  0.4885
20087SOL     OW61454   3.516   5.395   8.304 -0.2954 -0.4530 -0.0014
20087SOL    HW161455   3.585   5.461   8.305 -1.0392  0.4012 -1.5385
20087SOL    HW261456   3.560   5.314   8.329  0.6714  0.5608  1.7345
20088SOL     OW61457   0.607   4.585   5.837 -0.2444 -0.0526 -0.4163
20088SOL    HW161458   0.547   4.597   5.763  1.1833 -2.1420 -2.0422
20088SOL    HW261459   0.651   4.502   5.819  3.0758  1.2910  0.7012
20089SOL     OW61460   0.416   2.348   7.638  0.1936  0.1923  0.4945
20089SOL    HW161461   0.409   2.399   7.557  1.1247 -1.2358 -0.5466
20089SOL    HW261462   0.326   2.329   7.663 -0.0972  0.0735 -0.6107
20090SOL     OW61463   6.373   3.950   1.750 -0.0367 -0.3120 -0.0493
20090SOL    HW161464   6.325   3.875   1.715  0.4237 -1.2373  1.2036
20090SOL    HW261465   6.305   4.013   1.775 -0.5191 -0.9524  0.2779
20091SOL     OW61466   5.332   7.008   1.310 -0.0466  0.1486  0.5652
20091SOL    HW161467   5.276   7.070   1.356 -1.7414 -1.3156  0.5740
20091SOL    HW261468   5.285   6.989   1.229  0.6608 -0.7829  0.3617
20092SOL     OW61469   6.475   5.339   7.468 -0.0815  0.1798 -0.1270
20092SOL    HW161470   6.464   5.433   7.483  0.3934  0.2022  0.1113
20092SOL    HW261471   6.559   5.318   7.508 -0.5419 -0.5097  0.5016
20093SOL     OW61472   2.872   2.812   0.478  0.1234 -0.0217  0.0251
20093SOL    HW161473   2.840   2.723   0.494  0.9404 -0.2566  0.3586
20093SOL    HW261474   2.841   2.862   0.553 -0.7212  0.0867 -0.3799
20094SOL     OW61475   5.470   2.427   5.989 -0.0013 -0.3286  0.3093
20094SOL    HW161476   5.493   2.487   6.060 -1.0286 -0.9295  1.1809
20094SOL    HW261477   5.514   2.463   5.912  0.4971  0.7791  1.0833
20095SOL     OW61478   2.593   4.802   7.031  0.2891  0.4325 -0.2602
20095SOL    HW161479   2.632   4.808   6.944  0.1202  1.4868 -0.2734
20095SOL    HW261480   2.506   4.764   7.017  0.7928 -0.7088 -0.3788
20096SOL     OW61481   6.124   8.206   5.988 -0.1480  0.0637 -0.6314
20096SOL    HW161482   6.036   8.225   6.022 -0.5327  0.6930 -1.8815
20096SOL    HW261483   6.165   8.153   6.055 -1.1631  0.5343  0.4032
20097SOL     OW61484   7.659   8.498   1.228  0.1582 -0.4321  0.2114
20097SOL    HW161485   7.608   8.478   1.307  0.4231 -0.6090  0.3384
20097SOL    HW261486   7.636   8.429   1.167  0.8025 -0.9276  0.5254
20098SOL     OW61487   4.361   7.696   0.370 -0.0738  0.1816  0.4816
20098SOL    HW161488   4.319   7.610   0.366  0.1711  0.0785  0.0595
20098SOL    HW261489   4.289   7.759   0.361 -0.1997  0.0139  0.3204
20099SOL     OW61490   5.704   0.803   4.293  0.2336 -0.0051 -0.3388
20099SOL    HW161491   5.651   0.882   4.289 -1.3823 -1.0895 -2.0033
20099SOL    HW261492   5.709   0.781   4.386 -1.1741  0.8321 -0.0455
20100SOL     OW61493   5.798   6.568   7.363 -0.3131 -0.1166  0.4418
20100SOL    HW161494   5.875   6.586   7.417 -2.4625  3.6331  2.7017
20100SOL    HW261495   5.823   6.601   7.276  1.5755 -1.8229  0.2590
20101SOL     OW61496   3.678   3.575   4.112 -0.4738 -0.6595 -0.1674
20101SOL    HW161497   3.618   3.539   4.178 -0.5457 -0.7159 -0.2628
20101SOL    HW261498   3.634   3.654   4.080 -0.1211 -0.2489  0.3433
20102SOL     OW61499   7.274   3.738   4.942 -0.0504 -0.0366 -0.1788
20102SOL    HW161500   7.290   3.807   5.006  0.9183  2.2657 -2.6983
20102SOL    HW261501   7.263   3.659   4.994  0.9901  1.6126  2.7835
20103SOL     OW61502   0.969   0.391   6.771 -0.1441 -0.0245  0.3606
20103SOL    HW161503   0.974   0.326   6.842 -0.7279 -0.2386  0.2095
20103SOL    HW261504   1.005   0.346   6.695 -0.1299 -0.0164  0.3627
20104SOL     OW61505   4.410   6.670   7.123  0.6087 -0.3226  0.2663
20104SOL    HW161506   4.391   6.608   7.192  2.1053 -0.6035  0.4630
20104SOL    HW261507   4.409   6.756   7.166 -0.7497 -0.2556  0.1380
20105SOL     OW61508   2.034   2.014   3.752  0.5218  0.1173  0.1466
20105SOL    HW161509   2.097   2.026   3.823 -0.7570  0.8706  1.1932
20105SOL    HW261510   1.999   1.926   3.766  0.2303  0.2862  0.4879
20106SOL     OW61511   3.493   7.575   2.739  0.3607 -0.3593 -0.6226
20106SOL    HW161512   3.425   7.527   2.785  0.7327  0.6477  1.1042
20106SOL    HW261513   3.572   7.521   2.749  0.5420  0.0726  0.3649
20107SOL     OW61514   2.063   5.365   0.664 -0.3417  0.1589  0.4914
20107SOL    HW161515   2.107   5.374   0.749  0.6629  2.0276 -0.1730
20107SOL    HW261516   2.006   5.441   0.659 -0.2904  0.1312 -0.5835
20108SOL     OW61517   0.897   5.038   5.929  0.1160 -0.0369 -0.7473
20108SOL    HW161518   0.876   5.128   5.954 -0.4611 -0.6111  0.9394
20108SOL    HW261519   0.982   5.045   5.885  0.3163  1.2692 -0.1908
20109SOL     OW61520   0.679   3.889   2.232  0.5031  0.4171 -0.0305
20109SOL    HW161521   0.652   3.979   2.213 -1.0207 -0.2698 -1.3984
20109SOL    HW261522   0.772   3.887   2.209  0.1753  1.2526 -1.5536
20110SOL     OW61523   2.270   0.427   2.984  0.3477  0.3080 -0.0283
20110SOL    HW161524   2.355   0.383   2.993  0.2960  0.4539  1.5085
20110SOL    HW261525   2.211   0.358   2.954  1.2521  0.5233 -2.5366
20111SOL     OW61526   6.216   5.668   2.696 -0.0257 -0.0920  0.0708
20111SOL    HW161527   6.285   5.730   2.671  0.7442  0.4252  3.0403
20111SOL    HW261528   6.145   5.723   2.728 -0.0187 -0.6677  1.1310
20112SOL     OW61529   0.596   8.558   6.696  0.3989 -0.6512  0.1163
20112SOL    HW161530   0.572   8.477   6.741  3.0195 -1.7264 -0.2498
20112SOL    HW261531   0.692   8.558   6.695  0.5934  3.1417  1.3078
20113SOL     OW61532   8.528   0.389   3.230 -0.2817  0.0980  0.4861
20113SOL    HW161533   8.610   0.370   3.184  0.3394  1.7690  0.8477
20113SOL    HW261534   8.461   0.346   3.178  0.5920  0.5223 -1.0338
20114SOL     OW61535   4.892   8.496   8.364  0.6347 -0.3868  0.3888
20114SOL    HW161536   4.965   8.515   8.304 -0.3335 -2.3853 -1.5514
20114SOL    HW261537   4.874   8.403   8.352 -2.9878  0.2320 -0.0878
20115SOL     OW61538   3.809   5.995   4.861  0.3905  0.2290 -0.2337
20115SOL    HW161539   3.714   5.985   4.863  0.3276 -0.0632  3.4916
20115SOL    HW261540   3.825   6.080   4.902  1.7424 -0.2435  0.2791
20116SOL     OW61541   6.267   4.987   8.056 -0.6948 -0.6936 -0.3356
20116SOL    HW161542   6.179   5.018   8.075  0.0925  0.7194  1.3365
20116SOL    HW261543   6.290   4.932   8.132  0.2059 -0.2096 -0.2367
20117SOL     OW61544   4.530   2.735   6.219 -0.5969  0.0690  0.2795
20117SOL    HW161545   4.614   2.780   6.219  0.1115 -1.1847  1.5509
20117SOL    HW261546   4.466   2.804   6.237  0.1766  0.9788 -0.3477
20118SOL     OW61547   1.994   2.075   2.117  0.1417  0.1222  0.0942
20118SOL    HW161548   1.970   2.168   2.113 -2.9957 -0.4810  2.0411
20118SOL    HW261549   2.087   2.075   2.137  0.3285  2.8320 -0.4469
20119SOL     OW61550   5.996   3.574   7.143  0.2895 -0.5601  0.0682
20119SOL    HW161551   5.957   3.548   7.226 -1.1140 -0.0011 -0.3810
20119SOL    HW261552   6.061   3.641   7.166  2.4745 -2.8457  1.0232
20120SOL     OW61553   8.316   0.592   4.289 -0.2666 -0.2567 -0.1519
20120SOL    HW161554   8.267   0.671   4.265 -0.4790 -0.0972  0.7720
20120SOL    HW261555   8.395   0.596   4.234 -0.2355  0.6466 -0.0643
20121SOL     OW61556   8.158   5.043   1.688  0.6580 -0.1278  0.3785
20121SOL    HW161557   8.244   5.072   1.720  1.5151 -3.8735  1.9443
20121SOL    HW261558   8.099   5.057   1.762 -0.3232  2.7561 -0.8036
20122SOL     OW61559   2.722   6.306   6.589  0.0450 -0.6034  0.4412
20122SOL    HW161560   2.628   6.301   6.611  0.3051  0.2738  1.8795
20122SOL    HW261561   2.752   6.388   6.628  1.1245 -0.1231 -1.2757
20123SOL     OW61562   1.625   5.578   3.645 -0.1502 -0.2577  0.3672
20123SOL    HW161563   1.647   5.486   3.661  0.6569 -0.0902  0.3020
20123SOL    HW261564   1.542   5.576   3.598  0.0764 -0.9750 -0.0133
20124SOL     OW61565   8.224   3.888   1.447  0.0349 -0.8039  0.2966
20124SOL    HW161566   8.267   3.805   1.424 -1.8331 -1.6450 -0.3738
20124SOL    HW261567   8.229   3.940   1.367  0.9813 -0.3481  0.6399
20125SOL     OW61568   1.967   7.343   7.306 -0.1939  0.0878  0.0482
20125SOL    HW161569   1.875   7.319   7.303 -0.1286 -0.0902 -0.9226
20125SOL    HW261570   1.971   7.431   7.269  0.0204  0.1145  0.1297
20126SOL     OW61571   0.099   3.757   7.340 -0.1288  0.1778  0.4354
20126SOL    HW161572   0.054   3.672   7.342 -0.6643  0.4147 -0.5018
20126SOL    HW261573   0.029   3.820   7.325  0.4880  0.5491 -1.1674
20127SOL     OW61574   4.480   7.924   1.597 -0.0800  0.2837  0.3292
20127SOL    HW161575   4.567   7.955   1.573  0.0272  0.0721  0.4445
20127SOL    HW261576   4.426   8.004   1.600  0.7800  0.8640  3.1754
20128SOL     OW61577   1.573   0.107   4.017 -0.0873 -0.7858 -0.2324
20128SOL    HW161578   1.541   0.173   4.079 -1.2053 -1.5670  0.0518
20128SOL    HW261579   1.494   0.064   3.984  0.4566 -0.3101 -2.3314
20129SOL     OW61580   5.645   5.903   2.335 -0.8236 -0.8759 -0.4451
20129SOL    HW161581   5.698   5.913   2.415 -0.8195 -3.4128 -0.0582
20129SOL    HW261582   5.598   5.987   2.327  2.0849  0.9421 -0.0097
20130SOL     OW61583   4.930   8.176   5.555  0.1781 -0.0637 -0.2175
20130SOL    HW161584   4.903   8.241   5.490  0.4287 -0.5904 -0.8573
20130SOL    HW261585   5.020   8.154   5.532  0.6176  0.4904  0.9282
20131SOL     OW61586   2.395   8.018   3.219 -0.2139  0.2767 -0.1405
20131SOL    HW161587   2.424   7.977   3.138  0.6760  2.8599 -1.2203
20131SOL    HW261588   2.299   8.016   3.213 -0.1606  0.2742 -1.1551
20132SOL     OW61589   0.746   1.388   0.121 -0.5881  0.8613  0.1142
20132SOL    HW161590   0.827   1.345   0.148 -1.0743 -1.1717 -1.3515
20132SOL    HW261591   0.747   1.383   0.025 -1.7900  2.0725  0.0077
20133SOL     OW61592   5.504   2.836   3.905  0.5177  0.4007  0.0010
20133SOL    HW161593   5.500   2.930   3.887  1.9542  0.3154 -0.9139
20133SOL    HW261594   5.457   2.796   3.831 -0.1387  0.3859  0.4172
20134SOL     OW61595   1.900   3.605   0.316  0.2729 -0.1682 -0.3167
20134SOL    HW161596   1.887   3.699   0.301 -0.7830 -0.3281 -0.4812
20134SOL    HW261597   1.991   3.589   0.291  0.1657  0.6267 -1.2547
20135SOL     OW61598   0.532   4.762   6.023  0.5399  0.1199  0.0225
20135SOL    HW161599   0.561   4.697   6.086  0.7321  0.3014  0.1228
20135SOL    HW261600   0.545   4.721   5.937  1.6304  0.4031  0.0344
20136SOL     OW61601   0.317   2.816   1.010  0.2200 -0.8150 -0.2848
20136SOL    HW161602   0.241   2.787   1.060 -1.6873  3.3163 -0.3812
20136SOL    HW261603   0.280   2.848   0.927  2.4510 -1.0642 -1.4606
20137SOL     OW61604   1.367   6.203   2.292 -0.9121 -0.7692 -0.0758
20137SOL    HW161605   1.389   6.251   2.212 -0.1647 -2.0280 -0.6735
20137SOL    HW261606   1.444   6.148   2.309 -0.7692 -0.0448  1.9170
20138SOL     OW61607   7.921   0.257   2.268 -0.5289 -0.3281 -0.0835
20138SOL    HW161608   7.874   0.174   2.261 -1.7132  0.3292 -0.1014
20138SOL    HW261609   7.963   0.254   2.354  0.7827 -1.6094 -0.7248
20139SOL     OW61610   0.403   6.947   2.282  0.6863  0.4927 -0.2852
20139SOL    HW161611   0.367   7.011   2.221  1.6935  1.2359 -0.1269
20139SOL    HW261612   0.474   6.993   2.326  0.0931 -0.0739  1.3475
20140SOL     OW61613   8.296   2.878   5.273  0.0723 -0.3746 -0.3394
20140SOL    HW161614   8.220   2.922   5.236  0.1905 -0.0681 -0.2168
20140SOL    HW261615   8.311   2.804   5.214  0.3802  0.2214 -1.0235
20141SOL     OW61616   5.239   7.497   7.657  0.1314  0.0613  0.2272
20141SOL    HW161617   5.285   7.471   7.577 -1.3850 -1.3622 -0.2430
20141SOL    HW261618   5.239   7.418   7.711 -0.0289  0.6207  1.0560
20142SOL     OW61619   3.174   4.748   2.216  0.4342 -0.4369  0.5509
20142SOL    HW161620   3.257   4.784   2.184 -0.3684  0.4062 -0.7156
20142SOL    HW261621   3.161   4.669   2.164 -0.7806  0.8355 -1.2451
20143SOL     OW61622   5.096   5.060   1.948 -0.5630  0.1862  0.0153
20143SOL    HW161623   5.053   4.990   1.899 -1.6825  1.4355 -0.8915
20143SOL    HW261624   5.040   5.073   2.024 -0.5780  0.3378 -0.0202
20144SOL     OW61625   5.038   7.329   3.892  0.1329  0.9418 -0.1771
20144SOL    HW161626   4.951   7.341   3.855 -0.1945  0.3696  0.3877
20144SOL    HW261627   5.041   7.237   3.918  0.4826  1.2325  0.8782
20145SOL     OW61628   1.171   1.225   4.103 -0.0317  0.4225 -0.1422
20145SOL    HW161629   1.108   1.184   4.162  0.0314 -0.2943 -0.5540
20145SOL    HW261630   1.243   1.162   4.097 -0.2422  0.2575 -1.3214
20146SOL     OW61631   4.511   5.872   6.910 -0.1278  0.4011  0.5251
20146SOL    HW161632   4.593   5.891   6.863 -0.4970  0.2962 -0.1849
20146SOL    HW261633   4.536   5.867   7.002  0.8214 -0.5061  0.2326
20147SOL     OW61634   5.701   1.630   7.360  0.5923  0.0675  0.1150
20147SOL    HW161635   5.786   1.671   7.345  1.1010 -0.8144  0.5623
20147SOL    HW261636   5.721   1.544   7.395 -0.4660 -0.6935 -1.0695
20148SOL     OW61637   1.846   1.195   5.135 -0.2273  0.0609 -0.7484
20148SOL    HW161638   1.930   1.149   5.135 -0.2324  0.0516 -0.7584
20148SOL    HW261639   1.790   1.143   5.077 -0.1445  0.2405 -0.9939
20149SOL     OW61640   4.320   6.535   6.257 -0.0601 -0.3583 -0.3792
20149SOL    HW161641   4.348   6.563   6.170 -1.4420  0.5890 -0.5496
20149SOL    HW261642   4.228   6.512   6.247  0.0617 -1.3731  0.5924
20150SOL     OW61643   1.214   8.069   4.097  0.0939  0.6093 -0.0010
20150SOL    HW161644   1.134   8.082   4.148 -1.1748  1.0415 -1.9694
20150SOL    HW261645   1.234   8.156   4.063  0.9691  0.3580 -0.1356
20151SOL     OW61646   6.808   5.721   8.006 -0.1632 -0.1440  0.1481
20151SOL    HW161647   6.715   5.727   8.028  0.2617  1.7475  1.6629
20151SOL    HW261648   6.843   5.653   8.064 -0.1775  0.7938  1.2917
20152SOL     OW61649   8.549   6.906   6.874 -0.2680  0.4384  0.1614
20152SOL    HW161650   8.506   6.942   6.796  1.4960  0.6011 -0.8061
20152SOL    HW261651   8.609   6.840   6.840 -0.4121 -0.4398  1.5344
20153SOL     OW61652   7.808   3.000   6.684  0.4788 -0.1876  0.5226
20153SOL    HW161653   7.887   3.040   6.719  1.1775  0.0521 -1.2323
20153SOL    HW261654   7.736   3.039   6.734  1.3596  0.8994  0.9607
20154SOL     OW61655   4.461   6.013   5.312 -0.1938 -0.2785  0.2994
20154SOL    HW161656   4.400   5.965   5.256  0.3507 -1.4665  0.6955
20154SOL    HW261657   4.538   5.957   5.318  1.3888  1.6036 -0.9673
20155SOL     OW61658   7.192   2.657   5.293 -0.4898  0.0011 -0.4609
20155SOL    HW161659   7.277   2.682   5.329 -1.4489  1.1040  1.1672
20155SOL    HW261660   7.135   2.648   5.369 -1.8673 -0.5842 -1.5234
20156SOL     OW61661   0.334   1.975   7.561 -0.5053 -0.2407 -0.4173
20156SOL    HW161662   0.281   1.922   7.620  0.8675 -0.6379  0.5047
20156SOL    HW261663   0.405   2.008   7.616 -0.4296  1.2318 -1.3427
20157SOL     OW61664   5.591   5.217   5.042  0.2679 -0.3460  0.0873
20157SOL    HW161665   5.602   5.124   5.059  1.4601 -0.6452 -2.0351
20157SOL    HW261666   5.500   5.227   5.016  0.3113 -1.0256 -0.3270
20158SOL     OW61667   1.230   6.878   7.302  0.4386 -0.3905 -0.1486
20158SOL    HW161668   1.154   6.824   7.322 -0.9165  1.1453 -0.9109
20158SOL    HW261669   1.194   6.966   7.287  2.1454  0.0346 -2.2922
20159SOL     OW61670   0.315   7.967   0.754 -0.4350 -0.3657  0.4174
20159SOL    HW161671   0.395   7.975   0.806 -0.8678 -0.6199  1.1447
20159SOL    HW261672   0.244   7.984   0.817 -0.9293  0.9178 -0.4327
20160SOL     OW61673   3.072   3.580   3.661 -0.2159  0.7778 -0.6512
20160SOL    HW161674   3.025   3.503   3.692  1.3459 -1.0550 -2.4890
20160SOL    HW261675   3.045   3.589   3.570  1.9010  0.4395 -1.3710
20161SOL     OW61676   1.207   2.232   5.761  0.4214 -0.7978 -0.0599
20161SOL    HW161677   1.188   2.141   5.739 -0.9012 -1.0435  1.8085
20161SOL    HW261678   1.278   2.227   5.826 -0.8561 -0.6631  1.3949
20162SOL     OW61679   7.744   0.033   2.907  0.7923  0.2806  0.3023
20162SOL    HW161680   7.778   0.122   2.893 -0.5367  0.6252 -1.0282
20162SOL    HW261681   7.806  -0.023   2.861  1.7510  0.4827  1.3161
20163SOL     OW61682   6.964   1.721   1.805 -0.2407  0.5605 -0.0379
20163SOL    HW161683   7.052   1.738   1.839 -0.3149  0.1331  0.3724
20163SOL    HW261684   6.939   1.803   1.763  0.1932  0.8190  0.1981
20164SOL     OW61685   7.141   4.810   2.454 -0.0093 -0.2125 -0.3775
20164SOL    HW161686   7.212   4.875   2.451  0.1280 -0.3593 -0.3683
20164SOL    HW261687   7.066   4.855   2.416 -0.1091  0.1849  0.2823
20165SOL     OW61688   4.410   1.275   7.487  0.4834 -0.1945 -0.0837
20165SOL    HW161689   4.400   1.209   7.418 -1.1663  0.1791 -0.2485
20165SOL    HW261690   4.355   1.243   7.558  0.4850  0.4885  0.2308
20166SOL     OW61691   0.006   1.558   4.270  0.2982  0.0982  0.2966
20166SOL    HW161692   0.057   1.477   4.269 -1.3059 -0.9691  0.7115
20166SOL    HW261693   0.071   1.627   4.286  1.8686 -0.9331 -1.2825
20167SOL     OW61694   7.814   6.704   7.936 -0.0243 -0.0486 -0.2943
20167SOL    HW161695   7.725   6.738   7.931 -1.4287 -3.0404  1.3717
20167SOL    HW261696   7.870   6.781   7.936 -2.6380  1.9837 -0.4582
20168SOL     OW61697   1.497   4.568   6.366  0.3241 -0.0870 -0.2227
20168SOL    HW161698   1.511   4.477   6.391  0.2450  0.4309  1.9082
20168SOL    HW261699   1.565   4.586   6.301  0.0219 -1.7763 -1.0616
20169SOL     OW61700   3.623   6.828   1.411 -0.2248  0.2537  0.1009
20169SOL    HW161701   3.588   6.742   1.390 -0.0627  0.6417 -1.9465
20169SOL    HW261702   3.584   6.850   1.496 -2.2360 -0.7873 -0.4915
20170SOL     OW61703   4.295   2.488   7.854 -0.4049 -0.3618  0.0142
20170SOL    HW161704   4.340   2.503   7.938 -0.2918 -1.3122  0.1339
20170SOL    HW261705   4.312   2.396   7.835 -2.7899 -0.9279  0.3573
20171SOL     OW61706   8.037   3.769   5.921  0.3676  0.0154 -0.2616
20171SOL    HW161707   8.108   3.744   5.980  0.7164  0.4205 -0.5111
20171SOL    HW261708   7.959   3.729   5.961 -0.0026  2.9585  2.3748
20172SOL     OW61709   3.601   6.985   7.887  0.7143 -0.0708 -0.0006
20172SOL    HW161710   3.663   7.010   7.818  0.3845  1.6098  0.2693
20172SOL    HW261711   3.516   7.016   7.854 -0.0694 -2.5265 -0.4626
20173SOL     OW61712   4.755   1.964   4.262 -0.4010  0.3176 -0.0059
20173SOL    HW161713   4.725   1.971   4.171 -0.7352 -1.4950 -0.0795
20173SOL    HW261714   4.796   2.048   4.280 -3.1060  1.9411 -0.7868
20174SOL     OW61715   3.184   5.869   7.355 -0.0451 -0.4879  0.2938
20174SOL    HW161716   3.141   5.812   7.419 -1.0157 -1.4686 -1.1635
20174SOL    HW261717   3.146   5.844   7.271  0.4522  1.4484 -0.5723
20175SOL     OW61718   2.120   1.255   6.500  0.5440 -0.2707 -0.1694
20175SOL    HW161719   2.145   1.309   6.575 -2.6229 -0.0469  0.8639
20175SOL    HW261720   2.111   1.318   6.428 -0.3165  0.1581  0.2997
20176SOL     OW61721   8.544   0.253   3.931 -0.0550  0.0512 -0.5357
20176SOL    HW161722   8.630   0.282   3.900 -0.1637  2.5804  1.2855
20176SOL    HW261723   8.562   0.208   4.014 -0.5002  0.9153  0.0381
20177SOL     OW61724   3.506   7.747   2.491 -0.1993 -0.1088 -0.0891
20177SOL    HW161725   3.460   7.710   2.415 -0.5803 -0.3614  0.2608
20177SOL    HW261726   3.466   7.705   2.566  0.2030  0.1165  0.2554
20178SOL     OW61727   6.563   7.323   4.886 -0.1488 -0.2322 -0.3463
20178SOL    HW161728   6.528   7.356   4.969  1.2453 -0.0827  0.2181
20178SOL    HW261729   6.532   7.233   4.880  0.2786 -0.4578  0.6729
20179SOL     OW61730   7.424   8.411   5.421 -0.0387 -0.6264  0.0798
20179SOL    HW161731   7.472   8.473   5.367 -0.5677  0.5355  0.8966
20179SOL    HW261732   7.406   8.337   5.363 -0.1360  0.3554 -1.1745
20180SOL     OW61733   0.249   7.592   3.872  0.0251  0.0275  0.3389
20180SOL    HW161734   0.287   7.646   3.803 -0.7187 -0.8185 -0.7669
20180SOL    HW261735   0.247   7.503   3.835 -0.5741 -0.4092  1.3687
20181SOL     OW61736   3.339   0.090   7.321 -0.1229  0.3319 -0.1269
20181SOL    HW161737   3.429   0.093   7.356  0.1202 -0.8031 -0.6198
20181SOL    HW261738   3.320  -0.003   7.314 -1.7438  0.5463  0.9377
20182SOL     OW61739   0.073   2.215   5.359 -0.2168  0.3274  0.1693
20182SOL    HW161740  -0.020   2.236   5.348  0.1399  2.9531  1.5271
20182SOL    HW261741   0.089   2.225   5.453  1.4527 -0.0413 -0.0489
20183SOL     OW61742   5.783   3.171   5.914  0.4812 -0.0632 -0.1937
20183SOL    HW161743   5.726   3.237   5.875 -2.7165 -1.7087  1.2508
20183SOL    HW261744   5.816   3.212   5.994 -0.7136  0.1861  0.2019
20184SOL     OW61745   4.755   0.800   3.394 -0.8932 -0.2681 -0.6326
20184SOL    HW161746   4.766   0.719   3.443 -1.2682  0.5709  0.8889
20184SOL    HW261747   4.778   0.869   3.456 -0.2792  0.7924 -1.9905
20185SOL     OW61748   7.875   1.392   1.784  0.0782  0.7000  0.3655
20185SOL    HW161749   7.831   1.347   1.856  0.5227  1.1187  0.9171
20185SOL    HW261750   7.819   1.467   1.765 -0.1759  0.4437  0.0893
20186SOL     OW61751   0.526   7.651   4.445 -0.5080  0.0584 -0.0151
20186SOL    HW161752   0.592   7.615   4.504  0.0805  0.9735 -0.0884
20186SOL    HW261753   0.575   7.677   4.367 -1.0156  0.3806 -0.2335
20187SOL     OW61754   0.387   7.741   2.728 -0.1688 -0.2050 -0.1426
20187SOL    HW161755   0.327   7.815   2.737 -0.6950 -0.3805 -1.8452
20187SOL    HW261756   0.422   7.728   2.816 -2.7045 -0.1591  0.9556
20188SOL     OW61757   5.005   0.917   5.027 -0.4658  0.1649 -0.6304
20188SOL    HW161758   5.060   0.897   4.951  0.4911  0.6643 -0.0889
20188SOL    HW261759   4.948   0.988   4.997  0.1973  0.6501 -0.7713
20189SOL     OW61760   5.509   0.652   6.688 -0.3292  0.0260  0.2401
20189SOL    HW161761   5.510   0.585   6.620 -2.3628  0.6801 -0.5236
20189SOL    HW261762   5.464   0.610   6.762  0.7221 -0.2601  0.7396
20190SOL     OW61763   0.490   1.796   3.540 -0.1182  0.5471 -0.3387
20190SOL    HW161764   0.534   1.741   3.606 -1.2807  1.2016  1.0298
20190SOL    HW261765   0.545   1.787   3.462  0.0874 -2.0641 -0.0058
20191SOL     OW61766   5.213   6.516   2.590  0.3316 -0.0532  0.6532
20191SOL    HW161767   5.133   6.474   2.560  0.4158  0.6621 -0.6251
20191SOL    HW261768   5.186   6.566   2.668 -0.7290  1.0658 -0.3902
20192SOL     OW61769   3.737   5.373   4.533  0.5212  0.4970 -0.0874
20192SOL    HW161770   3.778   5.315   4.469 -0.6903  0.8701 -1.2356
20192SOL    HW261771   3.797   5.448   4.540  0.3679  0.7377 -1.2521
20193SOL     OW61772   7.505   1.148   0.649  0.4941 -0.0368  0.6265
20193SOL    HW161773   7.550   1.138   0.565  1.3660 -1.4691  1.2378
20193SOL    HW261774   7.430   1.205   0.629  2.1495  1.8758 -0.5668
20194SOL     OW61775   2.123   1.728   2.929  0.2270  0.0511 -0.2324
20194SOL    HW161776   2.100   1.698   2.841 -0.2181  0.7787 -0.3671
20194SOL    HW261777   2.049   1.781   2.957  0.1124 -0.6294  0.8089
20195SOL     OW61778   4.865   5.919   4.795  0.4899  0.1242 -0.1303
20195SOL    HW161779   4.916   5.941   4.718  1.2708 -0.2309  0.2720
20195SOL    HW261780   4.898   5.978   4.863 -1.8544  2.1668 -0.6110
20196SOL     OW61781   2.164   2.174   4.370 -0.0660  0.6471 -0.2595
20196SOL    HW161782   2.217   2.234   4.423  1.5153  1.4050 -2.5102
20196SOL    HW261783   2.213   2.167   4.287  1.1561 -5.5366  0.5168
20197SOL     OW61784   6.479   2.233   1.470 -0.2914 -0.4059  0.1419
20197SOL    HW161785   6.574   2.221   1.477 -0.1543 -0.2465 -1.2242
20197SOL    HW261786   6.445   2.146   1.449 -0.3509 -0.3001 -0.2035
20198SOL     OW61787   2.822   2.214   4.364  0.1048 -0.3047  0.8458
20198SOL    HW161788   2.773   2.256   4.435 -0.6132 -0.2135  0.3068
20198SOL    HW261789   2.815   2.275   4.291  1.3276 -0.1272  0.8583
20199SOL     OW61790   1.469   3.838   8.243  0.2942 -0.3524  0.0264
20199SOL    HW161791   1.477   3.814   8.335  0.9670  0.4299  0.1776
20199SOL    HW261792   1.470   3.933   8.242 -2.3304 -0.2544 -0.5645
20200SOL     OW61793   1.528   3.459   3.968 -0.2916  0.9121 -0.4747
20200SOL    HW161794   1.436   3.462   3.940 -0.7005 -0.3941  0.5701
20200SOL    HW261795   1.545   3.546   4.005 -2.2506  0.2087  2.5076
20201SOL     OW61796   3.312   2.898   6.084  0.6849  0.7731  0.0073
20201SOL    HW161797   3.378   2.936   6.142 -0.2581  0.1307  1.5845
20201SOL    HW261798   3.303   2.808   6.114  0.0648  0.4548 -1.0788
20202SOL     OW61799   1.791   7.316   5.723  0.2867 -0.1655 -0.2417
20202SOL    HW161800   1.711   7.301   5.673  0.9816 -0.9831 -1.1445
20202SOL    HW261801   1.855   7.346   5.658  0.4840  1.4361  0.6213
20203SOL     OW61802   7.337   5.851   1.633 -0.1939 -0.2734 -0.1891
20203SOL    HW161803   7.300   5.885   1.714  0.7552 -1.0998  0.6182
20203SOL    HW261804   7.428   5.880   1.634  0.1176 -1.1928 -0.4159
20204SOL     OW61805   8.473   2.361   0.456 -0.0789  0.0665 -0.6306
20204SOL    HW161806   8.455   2.433   0.395  1.7810  1.4881  0.4341
20204SOL    HW261807   8.420   2.288   0.422 -0.9668  1.5047 -2.5244
20205SOL     OW61808   4.734   8.521   5.815 -0.4134 -0.6312 -0.0483
20205SOL    HW161809   4.677   8.449   5.842 -0.4563 -0.5503  0.0780
20205SOL    HW261810   4.674   8.593   5.796 -0.3031 -0.1822  1.1876
20206SOL     OW61811   6.371   0.722   2.214  0.1066 -0.0102 -0.4809
20206SOL    HW161812   6.351   0.763   2.299 -0.3455  0.7370 -0.9405
20206SOL    HW261813   6.330   0.635   2.220  0.8300 -0.3076  0.3924
20207SOL     OW61814   3.112   7.523   6.223  0.3943 -0.4276  0.4816
20207SOL    HW161815   3.190   7.564   6.261 -0.3363  0.8174  0.6912
20207SOL    HW261816   3.115   7.548   6.131 -0.2164  0.3968  0.6730
20208SOL     OW61817   3.907   7.694   0.320 -0.1523 -0.6588  0.1915
20208SOL    HW161818   3.911   7.759   0.390 -1.0344 -1.0713  0.6288
20208SOL    HW261819   3.823   7.710   0.277 -0.7353 -1.9799  0.7824
20209SOL     OW61820   3.553   0.298   0.562  0.8384  0.1275 -0.2547
20209SOL    HW161821   3.461   0.320   0.546  0.2679 -1.3291  0.7386
20209SOL    HW261822   3.550   0.212   0.605  2.5728  0.8127  1.3896
20210SOL     OW61823   6.884   2.013   1.949 -0.4871 -0.2370 -0.0622
20210SOL    HW161824   6.895   2.010   1.854 -0.1280  0.0291 -0.0315
20210SOL    HW261825   6.829   1.937   1.969  2.6140 -2.6905 -0.0607
20211SOL     OW61826   6.784   1.562   6.251  0.0786 -0.4364  0.1271
20211SOL    HW161827   6.878   1.581   6.248  0.5209 -2.2588  0.8204
20211SOL    HW261828   6.757   1.586   6.340  0.3761 -1.7629  0.6063
20212SOL     OW61829   5.257   3.992   1.181  0.3672  0.1151  0.1254
20212SOL    HW161830   5.182   4.018   1.127  0.3566 -0.7171 -0.2808
20212SOL    HW261831   5.326   4.053   1.157  0.5877 -0.6832 -1.3862
20213SOL     OW61832   6.303   5.217   3.970 -0.4813  0.2776 -0.5670
20213SOL    HW161833   6.346   5.234   3.886 -1.1206 -2.5726 -1.5876
20213SOL    HW261834   6.217   5.257   3.962  0.4898  2.6889  0.0185
20214SOL     OW61835   0.208   6.083   6.190 -0.0273 -0.2552  0.8637
20214SOL    HW161836   0.240   6.048   6.107  0.3763  0.3635  0.7535
20214SOL    HW261837   0.272   6.052   6.255  2.3142  2.9705  0.3382
20215SOL     OW61838   6.170   4.849   6.324 -0.3588  0.1545 -0.2067
20215SOL    HW161839   6.150   4.855   6.417  0.5647 -0.4218  0.0466
20215SOL    HW261840   6.261   4.818   6.321 -0.7082 -0.8644 -1.2908
20216SOL     OW61841   6.217   7.388   0.664  0.0046  0.0032 -0.5516
20216SOL    HW161842   6.311   7.375   0.651 -0.1899 -0.7997 -1.2474
20216SOL    HW261843   6.194   7.329   0.736 -0.0718 -0.2482 -0.7802
20217SOL     OW61844   3.311   1.522   1.032  1.1593  0.3487  0.3882
20217SOL    HW161845   3.217   1.510   1.017  1.2167  0.4463 -0.0576
20217SOL    HW261846   3.326   1.487   1.120  0.6567  0.5784  0.5696
20218SOL     OW61847   7.697   1.910   1.150  0.3575  0.4121 -0.6655
20218SOL    HW161848   7.612   1.868   1.153  1.5127 -2.0341 -0.2109
20218SOL    HW261849   7.749   1.855   1.091  1.3030  2.5682 -1.9816
20219SOL     OW61850   6.535   7.350   6.656  0.5781  0.1060 -0.7368
20219SOL    HW161851   6.608   7.300   6.619 -0.3014 -0.7963 -1.3086
20219SOL    HW261852   6.462   7.332   6.598 -0.0051  1.3602 -0.4296
20220SOL     OW61853   5.956   6.630   5.622 -0.2668 -0.0472  0.1345
20220SOL    HW161854   5.874   6.635   5.572  0.8311  0.9495 -1.6632
20220SOL    HW261855   5.962   6.539   5.649 -0.4888 -0.8884 -2.3754
20221SOL     OW61856   4.566   4.184   7.300  0.7431 -0.9433 -0.2891
20221SOL    HW161857   4.595   4.274   7.293  2.1225 -1.4204 -0.9259
20221SOL    HW261858   4.639   4.132   7.269 -0.4517 -2.2414 -1.0504
20222SOL     OW61859   6.818   3.220   6.569 -0.1290 -0.2458  0.1118
20222SOL    HW161860   6.898   3.238   6.618 -0.5383 -0.2205  0.7790
20222SOL    HW261861   6.824   3.275   6.491  1.1642 -1.2919 -0.5571
20223SOL     OW61862   2.716   1.787   1.003 -0.4984  1.0971  0.0915
20223SOL    HW161863   2.710   1.753   1.093 -1.6481  0.8088 -0.0872
20223SOL    HW261864   2.792   1.845   1.005  0.2027  0.1909  0.9534
20224SOL     OW61865   6.362   3.008   1.582  0.0339 -0.6600  0.2667
20224SOL    HW161866   6.304   2.976   1.652 -0.2947 -0.2014  0.2117
20224SOL    HW261867   6.450   2.994   1.615 -0.1180 -0.8159  0.6080
20225SOL     OW61868   5.621   4.092   2.351 -0.0409  0.2549  0.3269
20225SOL    HW161869   5.709   4.056   2.349 -0.6102 -1.2519  1.2022
20225SOL    HW261870   5.582   4.058   2.431 -1.0139  1.9274  0.6258
20226SOL     OW61871   8.085   4.890   4.368 -0.5202 -0.6980  0.3170
20226SOL    HW161872   8.070   4.975   4.410 -0.9681 -0.9561  0.7009
20226SOL    HW261873   8.172   4.896   4.330 -0.9133  0.2666 -0.4689
20227SOL     OW61874   3.336   7.098   6.513  0.2987 -0.0056  0.3284
20227SOL    HW161875   3.266   7.059   6.566  1.3593 -1.5039  0.7106
20227SOL    HW261876   3.308   7.083   6.423 -0.0778 -0.2171  0.4748
20228SOL     OW61877   5.984   1.335   5.685  0.5097  0.2472 -0.3791
20228SOL    HW161878   6.041   1.272   5.729  2.1898  1.0827 -1.2542
20228SOL    HW261879   6.017   1.338   5.595 -0.9766  0.7381 -0.9373
20229SOL     OW61880   4.261   5.037   7.295  0.4202  0.4868 -0.4447
20229SOL    HW161881   4.242   5.100   7.364 -0.9645 -2.0593  1.6936
20229SOL    HW261882   4.353   5.052   7.274  0.5503  2.1784  1.0514
20230SOL     OW61883   5.411   5.803   4.596  0.1776  0.2396 -0.2676
20230SOL    HW161884   5.450   5.890   4.588  0.2050  0.3202  0.6454
20230SOL    HW261885   5.473   5.754   4.650 -0.9340  0.3643  1.1926
20231SOL     OW61886   7.974   1.334   4.086  0.3093  0.0715 -0.1677
20231SOL    HW161887   7.888   1.301   4.063  0.0968  0.2706  0.3235
20231SOL    HW261888   7.998   1.392   4.014 -0.3487  0.7040  0.1125
20232SOL     OW61889   3.110   0.273   6.295 -0.6382 -0.1536 -0.3941
20232SOL    HW161890   3.138   0.351   6.247 -0.5350 -0.1266 -0.2891
20232SOL    HW261891   3.133   0.291   6.386  0.2887 -0.7175 -0.5007
20233SOL     OW61892   8.412   8.447   3.332  0.5067  0.3462 -0.3949
20233SOL    HW161893   8.352   8.381   3.367  1.4800 -0.5797 -0.4394
20233SOL    HW261894   8.358   8.526   3.323 -0.5811 -0.3325  0.0103
20234SOL     OW61895   2.225   6.989   3.324 -0.6134 -0.2022 -0.1486
20234SOL    HW161896   2.148   6.936   3.344 -0.9047  0.6435  1.1220
20234SOL    HW261897   2.220   7.063   3.386  1.8572 -0.7653  0.8325
20235SOL     OW61898   6.171   4.844   4.916  0.0162 -0.0581 -0.0773
20235SOL    HW161899   6.213   4.912   4.863 -1.5777  1.0883  0.0437
20235SOL    HW261900   6.200   4.862   5.005 -0.4666  0.5609 -0.0326
20236SOL     OW61901   7.189   1.977   1.000 -0.5190  0.5078 -0.2452
20236SOL    HW161902   7.217   1.972   0.908 -0.4490  2.1027 -0.3399
20236SOL    HW261903   7.236   2.052   1.035 -0.6249 -0.0257  1.0875
20237SOL     OW61904   7.855   3.722   7.739  0.1141 -0.3923  0.1510
20237SOL    HW161905   7.885   3.782   7.808  0.1963  0.8036 -0.9007
20237SOL    HW261906   7.768   3.754   7.716 -0.9491 -2.2322  1.3124
20238SOL     OW61907   7.220   3.839   5.700  0.4170  0.5391 -0.3890
20238SOL    HW161908   7.230   3.784   5.778  2.9610  1.3385 -0.0798
20238SOL    HW261909   7.202   3.776   5.629  0.4596 -0.4074  0.4121
20239SOL     OW61910   5.309   3.683   0.430  0.3908 -0.8661  0.2073
20239SOL    HW161911   5.337   3.707   0.518 -0.2642 -2.7037  0.9490
20239SOL    HW261912   5.213   3.679   0.434  0.2613  0.2521 -0.9386
20240SOL     OW61913   1.755   3.930   0.836 -0.0030 -0.1081  0.4521
20240SOL    HW161914   1.804   3.855   0.869  0.3956 -0.4306 -0.8296
20240SOL    HW261915   1.717   3.900   0.753  0.4280  1.1973 -0.2516
20241SOL     OW61916   3.773   5.957   4.524  0.0568 -0.3571 -0.0362
20241SOL    HW161917   3.679   5.977   4.521 -0.3747 -2.2240  0.0333
20241SOL    HW261918   3.791   5.946   4.618  0.4336  0.2804 -0.0264
20242SOL     OW61919   0.764   1.483   6.041 -1.0365 -0.5808 -0.2260
20242SOL    HW161920   0.777   1.424   5.966  0.2359 -0.6741  0.0535
20242SOL    HW261921   0.690   1.445   6.088 -0.2040 -2.0236 -0.0131
20243SOL     OW61922   8.493   2.191   2.921 -0.6562 -0.6020  0.1437
20243SOL    HW161923   8.546   2.130   2.870 -1.5748 -3.6261  2.5399
20243SOL    HW261924   8.555   2.230   2.984 -0.4400 -0.4633 -0.1472
20244SOL     OW61925   2.085   2.998   2.351  0.3437  0.5252  0.4027
20244SOL    HW161926   2.152   2.940   2.387  0.0927 -0.5140 -0.7258
20244SOL    HW261927   2.003   2.967   2.390  0.0105 -0.8854 -1.2670
20245SOL     OW61928   3.609   4.770   8.005 -0.0133 -0.2081 -0.0671
20245SOL    HW161929   3.705   4.774   8.008  0.0071  2.4231 -1.4498
20245SOL    HW261930   3.582   4.776   8.097  1.1008 -1.6195  0.3890
20246SOL     OW61931   4.754   3.168   2.452  0.4331 -0.2489  0.2715
20246SOL    HW161932   4.664   3.155   2.424  0.7044 -1.6010 -0.0558
20246SOL    HW261933   4.781   3.083   2.488  1.2817  0.3957  1.2335
20247SOL     OW61934   3.552   6.677   3.615  0.0425  0.3354 -0.1684
20247SOL    HW161935   3.511   6.625   3.685  1.1433 -1.1485 -0.5787
20247SOL    HW261936   3.597   6.612   3.560 -0.0703  1.5513 -1.7734
20248SOL     OW61937   5.355   4.899   2.704  0.1399 -0.3036 -0.3589
20248SOL    HW161938   5.332   4.925   2.793  1.6326 -0.1391  0.0090
20248SOL    HW261939   5.280   4.924   2.651 -1.4321 -1.7860  1.0662
20249SOL     OW61940   2.269   1.670   1.794 -0.2004 -0.0439  0.5731
20249SOL    HW161941   2.184   1.629   1.809 -0.5043  0.2455 -0.2932
20249SOL    HW261942   2.271   1.688   1.700 -0.1143  2.0047  0.9255
20250SOL     OW61943   8.350   4.970   2.085  0.2251 -0.5394  0.2522
20250SOL    HW161944   8.374   5.058   2.055  0.9703 -0.7800  0.1197
20250SOL    HW261945   8.407   4.911   2.035 -0.5823 -1.1266  0.0113
20251SOL     OW61946   2.068   1.353   0.532  0.0672  0.2917  0.3168
20251SOL    HW161947   2.126   1.280   0.510  0.3367  0.4173  0.6131
20251SOL    HW261948   2.101   1.387   0.615  1.3694  2.2321 -0.9261
20252SOL     OW61949   6.890   0.702   5.475  0.2465  0.0371 -0.2416
20252SOL    HW161950   6.930   0.619   5.448  0.9426  0.8659 -1.8729
20252SOL    HW261951   6.798   0.694   5.447  0.6392  0.3408 -1.6824
20253SOL     OW61952   3.349   2.643   4.789  0.4019  0.2381 -0.0020
20253SOL    HW161953   3.262   2.670   4.819  0.1067 -2.1656  1.5836
20253SOL    HW261954   3.407   2.712   4.820 -0.5939  0.4535  1.4914
20254SOL     OW61955   5.461   7.627   3.773 -0.0095 -0.2218  0.6983
20254SOL    HW161956   5.473   7.643   3.679  0.6296 -0.4490  0.7394
20254SOL    HW261957   5.368   7.605   3.781 -0.4707  1.4799  0.3621
20255SOL     OW61958   0.769   4.567   7.022  0.4482  0.0947 -0.8439
20255SOL    HW161959   0.839   4.620   6.983  0.5830  0.5740  0.0094
20255SOL    HW261960   0.717   4.537   6.947  0.5176  1.2351 -1.3812
20256SOL     OW61961   7.447   5.956   2.849  0.4685  0.1566  0.2128
20256SOL    HW161962   7.529   5.961   2.799  0.4219 -1.3304 -0.0701
20256SOL    HW261963   7.474   5.922   2.934  0.4230  1.8364  0.9365
20257SOL     OW61964   7.010   2.386   6.550 -0.2143  0.1194  0.5963
20257SOL    HW161965   6.974   2.329   6.482  1.8587 -0.4453 -0.1188
20257SOL    HW261966   6.963   2.361   6.630  0.8069 -2.9067  0.4035
20258SOL     OW61967   1.256   4.132   6.310  0.3266 -0.2743  0.0552
20258SOL    HW161968   1.342   4.164   6.281  0.2140 -0.3331 -0.3481
20258SOL    HW261969   1.198   4.207   6.300 -0.3219 -1.0082 -2.5395
20259SOL     OW61970   2.801   6.541   5.696  0.2901  0.4515 -0.9240
20259SOL    HW161971   2.731   6.533   5.630  0.5659 -1.2050 -1.0453
20259SOL    HW261972   2.813   6.636   5.706 -2.1535  0.8076 -0.6983
20260SOL     OW61973   6.006   6.426   2.366 -0.4838  0.0904  0.1153
20260SOL    HW161974   5.960   6.510   2.364 -0.8924 -0.1443 -0.7941
20260SOL    HW261975   6.063   6.432   2.443 -0.0602  1.4312 -0.2857
20261SOL     OW61976   1.764   3.174   7.669  0.6279  0.0467  0.0182
20261SOL    HW161977   1.675   3.156   7.639  1.1516  0.7771 -2.1475
20261SOL    HW261978   1.753   3.201   7.761 -1.2626 -0.7441  0.0732
20262SOL     OW61979   3.475   6.307   5.916  0.2616 -0.0256 -0.5391
20262SOL    HW161980   3.544   6.358   5.956  0.8742  0.1976 -1.8291
20262SOL    HW261981   3.493   6.216   5.942 -0.7191  0.3249  1.5919
20263SOL     OW61982   7.908   1.253   3.703 -0.2013  0.7811  0.3335
20263SOL    HW161983   7.893   1.250   3.608  0.0200 -0.1806  0.3265
20263SOL    HW261984   7.986   1.200   3.717 -0.4116  0.6658  1.0932
20264SOL     OW61985   5.252   7.894   0.134 -0.0475 -0.0422 -0.2254
20264SOL    HW161986   5.189   7.956   0.171 -1.7312 -1.9221  0.2156
20264SOL    HW261987   5.298   7.859   0.210 -0.7100 -0.9691 -0.2299
20265SOL     OW61988   6.850   1.552   1.219 -0.5508  0.3553  0.6848
20265SOL    HW161989   6.762   1.514   1.227 -0.9980  1.1476 -0.2216
20265SOL    HW261990   6.908   1.485   1.254 -1.1388 -1.8412 -2.1892
20266SOL     OW61991   1.356   1.395   6.233  0.9731  0.4465 -0.1663
20266SOL    HW161992   1.284   1.381   6.172  2.1000 -0.1325 -1.4111
20266SOL    HW261993   1.380   1.487   6.222  0.1580  0.7664  0.5892
20267SOL     OW61994   7.150   7.748   6.595 -0.2229  0.0048 -0.1962
20267SOL    HW161995   7.175   7.720   6.507 -0.8565  0.1026 -0.4150
20267SOL    HW261996   7.156   7.668   6.648 -0.5741 -0.2279 -0.4969
20268SOL     OW61997   0.702   4.579   7.571 -0.2311  0.2388  0.0452
20268SOL    HW161998   0.754   4.611   7.497  1.1176 -0.2573  0.7436
20268SOL    HW261999   0.633   4.525   7.530  0.6172 -0.2048 -0.8430
20269SOL     OW62000   6.446   5.606   3.153  0.1414 -0.2827  0.5601
20269SOL    HW162001   6.371   5.586   3.208 -0.0893 -0.5056  0.1713
20269SOL    HW262002   6.409   5.659   3.082  0.2070 -1.0130 -0.0364
20270SOL     OW62003   0.929   5.548   4.889  0.6606  0.0250  0.2283
20270SOL    HW162004   0.914   5.478   4.952  2.8644 -0.8078 -0.0591
20270SOL    HW262005   0.909   5.508   4.804 -0.7782  0.6561  0.2432
20271SOL     OW62006   2.201   6.640   3.302 -0.1556 -0.1415 -0.3051
20271SOL    HW162007   2.134   6.699   3.337  1.0729  1.7548 -1.0002
20271SOL    HW262008   2.170   6.619   3.214  1.4567  3.2487 -1.8940
20272SOL     OW62009   6.827   7.321   6.439  0.0308 -0.0545 -0.2794
20272SOL    HW162010   6.873   7.362   6.366 -0.5607 -0.1792 -0.7331
20272SOL    HW262011   6.778   7.249   6.399  0.1823 -0.5077  0.3389
20273SOL     OW62012   5.533   6.244   7.567 -0.2762  0.1545 -0.3231
20273SOL    HW162013   5.546   6.181   7.638 -2.5296  0.0100  0.0335
20273SOL    HW262014   5.556   6.196   7.488 -2.0137 -1.2004 -0.0595
20274SOL     OW62015   0.818   3.630   3.511 -0.3418 -0.4652  0.1664
20274SOL    HW162016   0.891   3.573   3.487 -0.0696 -0.2034  0.3647
20274SOL    HW262017   0.840   3.715   3.472 -2.0415 -1.1071 -2.5055
20275SOL     OW62018   5.406   0.091   5.927  0.5132  0.7398 -0.0763
20275SOL    HW162019   5.383   0.009   5.883 -1.4423  0.3775  1.4916
20275SOL    HW262020   5.362   0.086   6.011  1.6599  2.7411  0.7050
20276SOL     OW62021   7.616   0.029   4.366  0.4205 -0.0777 -0.6225
20276SOL    HW162022   7.580   0.085   4.435  1.9472  0.6908 -0.3957
20276SOL    HW262023   7.702   0.003   4.400  0.5310 -0.9807 -1.5686
20277SOL     OW62024   3.115   0.625   4.379 -0.5704 -0.7522 -0.2576
20277SOL    HW162025   3.160   0.644   4.297 -1.5736 -0.7350 -0.8177
20277SOL    HW262026   3.140   0.535   4.400 -0.6036 -0.8826 -0.7735
20278SOL     OW62027   0.678   5.938   6.732 -0.0767 -0.2660  0.2548
20278SOL    HW162028   0.759   5.947   6.782 -0.1180 -1.2020  0.4967
20278SOL    HW262029   0.614   5.991   6.781  0.7989  2.1126 -0.9789
20279SOL     OW62030   2.542   6.795   7.771  0.7156 -0.2222 -0.1637
20279SOL    HW162031   2.579   6.881   7.792  2.9697 -1.1629 -0.0839
20279SOL    HW262032   2.475   6.814   7.705  0.7672  1.6322  0.2580
20280SOL     OW62033   0.108   6.560   1.942  0.0171  0.4025 -0.0819
20280SOL    HW162034   0.080   6.469   1.948  0.0275  0.5035  2.0559
20280SOL    HW262035   0.027   6.610   1.940 -0.0575  0.4921  2.3920
20281SOL     OW62036   8.502   3.988   3.015  0.2598 -0.1774  0.2305
20281SOL    HW162037   8.482   3.948   3.100 -2.5820  0.3291 -0.1000
20281SOL    HW262038   8.437   4.058   3.006 -0.1858 -0.8570 -2.7933
20282SOL     OW62039   2.163   5.974   8.415 -0.0026  0.2756 -0.4905
20282SOL    HW162040   2.248   6.017   8.407 -1.1994  2.4770 -2.4228
20282SOL    HW262041   2.145   5.975   8.509  1.1429  1.7994 -0.2488
20283SOL     OW62042   1.457   1.797   4.561  0.3560 -0.5905 -0.0131
20283SOL    HW162043   1.400   1.720   4.556  0.4811 -0.5984 -2.8046
20283SOL    HW262044   1.537   1.765   4.603 -0.1315 -1.6191  0.1697
20284SOL     OW62045   1.198   5.998   3.312 -0.3118 -0.3971 -0.7376
20284SOL    HW162046   1.108   5.985   3.342 -0.3530 -0.0321 -0.7027
20284SOL    HW262047   1.242   5.914   3.331  0.4713  0.6761  3.1330
20285SOL     OW62048   8.591   5.748   1.301  0.1347  0.1668 -0.0158
20285SOL    HW162049   8.610   5.837   1.271 -1.8761  0.6665 -0.0034
20285SOL    HW262050   8.650   5.692   1.250  1.2381  1.4747 -0.2326
20286SOL     OW62051   1.280   6.514   1.240  0.8573  0.3367 -0.4481
20286SOL    HW162052   1.258   6.529   1.332 -0.3710  1.3729 -0.8760
20286SOL    HW262053   1.204   6.547   1.192  2.1886  1.4135 -1.9226
20287SOL     OW62054   8.248   4.516   6.415  0.3355  0.0360  0.1429
20287SOL    HW162055   8.264   4.595   6.466 -0.5809  0.5148 -0.2874
20287SOL    HW262056   8.203   4.547   6.336 -0.1283 -0.9160  0.0203
20288SOL     OW62057   4.668   8.206   7.264  0.1611 -0.2126 -0.0047
20288SOL    HW162058   4.701   8.160   7.341 -0.3948  2.2434  1.8497
20288SOL    HW262059   4.746   8.228   7.213  0.5273 -2.0049 -0.2730
20289SOL     OW62060   0.426   6.682   2.217 -0.3271 -0.2370 -0.1582
20289SOL    HW162061   0.406   6.774   2.229 -1.8198 -0.5957  0.2971
20289SOL    HW262062   0.368   6.636   2.278  1.0627 -1.4338  0.3280
20290SOL     OW62063   5.765   0.133   5.300 -0.6287  0.5090 -0.1911
20290SOL    HW162064   5.766   0.040   5.277  0.3456  0.4982 -0.1466
20290SOL    HW262065   5.696   0.140   5.366 -2.1415  0.1953 -1.6572
20291SOL     OW62066   8.453   7.525   6.932  0.7616  0.3223 -0.0287
20291SOL    HW162067   8.403   7.443   6.937  1.2460 -0.1474 -2.0557
20291SOL    HW262068   8.542   7.499   6.956  0.8982  0.2691 -0.5906
20292SOL     OW62069   8.570   8.017   6.109 -0.2170  0.4997 -0.0352
20292SOL    HW162070   8.496   8.043   6.163 -1.4140 -0.8791 -0.9594
20292SOL    HW262071   8.595   8.097   6.063 -1.5816  0.8457 -0.2171
20293SOL     OW62072   3.683   7.425   1.954  0.3216 -0.0178 -0.5695
20293SOL    HW162073   3.746   7.487   1.990  2.1753 -1.3480 -1.4155
20293SOL    HW262074   3.622   7.409   2.026 -0.6340  3.1771 -0.4758
20294SOL     OW62075   1.673   1.323   3.922  0.2760 -0.2973  0.5754
20294SOL    HW162076   1.641   1.402   3.965  2.0001  0.8064 -0.0421
20294SOL    HW262077   1.658   1.253   3.985 -1.2511  0.5203  1.1522
20295SOL     OW62078   4.967   4.208   4.337  0.1540 -0.2755 -0.1697
20295SOL    HW162079   4.922   4.125   4.319  0.2902 -0.1101 -1.3343
20295SOL    HW262080   4.903   4.259   4.388  0.0749 -1.0937  0.5633
20296SOL     OW62081   1.598   6.084   2.000  0.0491 -0.6718 -0.0873
20296SOL    HW162082   1.591   6.153   1.935 -1.5252 -2.0003 -1.4423
20296SOL    HW262083   1.664   6.024   1.965 -0.4225 -1.1186 -0.2402
20297SOL     OW62084   7.710   6.418   5.998 -0.1617 -0.9983  0.1909
20297SOL    HW162085   7.697   6.459   6.084 -0.6077 -0.0489 -0.3146
20297SOL    HW262086   7.804   6.403   5.993  0.7294  3.3240 -0.9867
20298SOL     OW62087   2.122   7.385   3.031 -0.5353  0.2562  0.0988
20298SOL    HW162088   2.144   7.302   3.073 -0.6517  0.3365  0.3214
20298SOL    HW262089   2.166   7.382   2.946 -2.6671 -1.1750 -1.0462
20299SOL     OW62090   7.430   4.472   2.519 -0.1824  0.2353 -0.2608
20299SOL    HW162091   7.411   4.443   2.608  0.2135  2.4081  0.6018
20299SOL    HW262092   7.344   4.495   2.483 -0.3920 -1.0506 -0.6274
20300SOL     OW62093   4.859   0.537   0.839 -0.2613 -0.2857  0.5126
20300SOL    HW162094   4.818   0.604   0.785 -0.5559 -0.8215  0.0545
20300SOL    HW262095   4.936   0.510   0.788  0.2094  0.1375  0.9851
20301SOL     OW62096   5.202   7.452   0.229 -0.2260 -0.6324 -0.1796
20301SOL    HW162097   5.152   7.530   0.205  1.3458  0.2949 -0.5981
20301SOL    HW262098   5.137   7.382   0.233 -1.6661  0.6614  0.1015
20302SOL     OW62099   2.592   3.435   4.600 -0.8400  0.6994 -0.1082
20302SOL    HW162100   2.607   3.478   4.684  0.0829 -2.3078  1.3904
20302SOL    HW262101   2.505   3.395   4.609  0.4175 -2.0894  0.6918
20303SOL     OW62102   2.738   7.867   6.142 -0.3187 -0.5879 -0.4700
20303SOL    HW162103   2.748   7.873   6.237  1.3585 -0.3293 -0.6264
20303SOL    HW262104   2.676   7.937   6.120  0.6479  0.5360  0.2667
20304SOL     OW62105   5.054   8.583   0.256 -0.0978  0.3858 -0.6723
20304SOL    HW162106   5.143   8.548   0.253 -0.5173 -1.1463  1.4859
20304SOL    HW262107   5.032   8.602   0.165  2.7405  1.7432 -1.1775
20305SOL     OW62108   3.798   8.099   3.028  0.0240  0.1517  0.4973
20305SOL    HW162109   3.724   8.119   2.971  0.9543 -1.9634 -1.6089
20305SOL    HW262110   3.759   8.090   3.115 -1.7464  1.6253 -0.0783
20306SOL     OW62111   6.033   2.997   5.953  0.1094  0.3846 -0.3682
20306SOL    HW162112   6.089   3.048   5.894  1.0754  0.3304  0.4531
20306SOL    HW262113   5.944   3.026   5.934  0.2614 -0.4945 -2.6653
20307SOL     OW62114   5.687   0.511   1.378  0.8740 -0.1812 -0.5785
20307SOL    HW162115   5.781   0.491   1.371  1.1586 -0.7233  2.8642
20307SOL    HW262116   5.684   0.607   1.383  1.3695 -0.1923  0.1352
20308SOL     OW62117   3.873   1.447   7.827 -0.2930 -0.0181 -0.2820
20308SOL    HW162118   3.886   1.491   7.911  0.8650 -1.4287  0.3194
20308SOL    HW262119   3.808   1.379   7.846 -1.1255  0.5760 -0.9042
20309SOL     OW62120   6.500   4.151   5.251  0.0898  0.4382 -0.2661
20309SOL    HW162121   6.454   4.084   5.302  0.6893  1.4359  1.6719
20309SOL    HW262122   6.580   4.107   5.221 -0.5194 -0.3187 -0.8314
20310SOL     OW62123   4.055   8.508   4.930 -0.5783 -0.1916 -0.1841
20310SOL    HW162124   3.986   8.441   4.938 -0.4683 -0.6503 -2.3375
20310SOL    HW262125   4.061   8.524   4.836 -0.0342  2.3096  0.2260
20311SOL     OW62126   4.244   4.184   0.624  0.8681  0.4366 -0.3296
20311SOL    HW162127   4.171   4.210   0.680 -1.2160 -1.5045 -1.9596
20311SOL    HW262128   4.305   4.257   0.630 -0.6485  1.6515  2.0069
20312SOL     OW62129   6.669   8.176   2.317  0.2150  0.6548 -0.4607
20312SOL    HW162130   6.639   8.087   2.337  0.2106  0.5639 -0.8680
20312SOL    HW262131   6.726   8.165   2.240 -0.3015  1.0918 -0.9101
20313SOL     OW62132   6.442   5.030   0.080 -0.5509  0.4187 -0.0249
20313SOL    HW162133   6.537   5.035   0.063 -0.6882 -1.3675 -1.6271
20313SOL    HW262134   6.416   4.945   0.044 -3.0411  1.5065 -1.0061
20314SOL     OW62135   1.322   8.371   6.246  0.4974  0.2192 -0.3494
20314SOL    HW162136   1.306   8.297   6.304 -0.7099  0.4852 -0.3152
20314SOL    HW262137   1.326   8.333   6.158  0.4394  0.0394 -0.2751
20315SOL     OW62138   5.763   6.968   3.121  0.1449 -0.0866  0.2802
20315SOL    HW162139   5.771   7.027   3.196 -2.2523 -0.0459  0.5832
20315SOL    HW262140   5.735   7.025   3.049 -0.8241 -0.5927  0.2308
20316SOL     OW62141   6.470   2.143   4.819 -0.3458 -0.1965  0.0012
20316SOL    HW162142   6.482   2.217   4.879 -0.8960  0.0847 -0.2227
20316SOL    HW262143   6.420   2.180   4.746  0.8455 -0.3842 -0.9270
20317SOL     OW62144   5.108   4.481   3.338 -0.2015 -0.2876 -0.2896
20317SOL    HW162145   5.071   4.521   3.260  1.4767  0.3173 -0.8234
20317SOL    HW262146   5.095   4.387   3.325 -0.7399 -0.1419 -0.8540
20318SOL     OW62147   0.948   1.974   5.092  0.2267 -0.0936 -0.7048
20318SOL    HW162148   0.856   2.001   5.102  0.0360 -0.1856 -2.0424
20318SOL    HW262149   0.986   2.042   5.037  1.5760  1.1538  1.6079
20319SOL     OW62150   7.468   2.923   7.855  0.1214  0.4225 -0.1578
20319SOL    HW162151   7.477   3.011   7.890 -0.1480  0.6598 -0.6794
20319SOL    HW262152   7.558   2.897   7.833  0.4800 -0.2136  1.8133
20320SOL     OW62153   5.440   1.542   8.471 -0.3667  0.3998  0.4935
20320SOL    HW162154   5.491   1.607   8.519  0.3426  0.6861 -0.6060
20320SOL    HW262155   5.377   1.594   8.421 -0.5942  0.1591  0.5293
20321SOL     OW62156   1.876   6.161   0.632  0.4577  0.1387  0.3536
20321SOL    HW162157   1.786   6.128   0.638  1.0515 -1.8388 -0.5369
20321SOL    HW262158   1.914   6.114   0.557  1.6666  2.4085 -0.5641
20322SOL     OW62159   6.746   1.463   0.915 -0.3409 -0.3394 -0.4185
20322SOL    HW162160   6.791   1.385   0.882  0.1870  0.0361 -0.6017
20322SOL    HW262161   6.803   1.496   0.984 -1.4877 -1.1742  0.9640
20323SOL     OW62162   8.182   4.815   4.008  0.3716 -0.5101 -0.1343
20323SOL    HW162163   8.205   4.722   4.010  1.0908 -0.3640 -0.8386
20323SOL    HW262164   8.155   4.830   3.917 -2.2995 -0.5928  0.5596
20324SOL     OW62165   7.872   2.797   4.921  0.6186 -0.1242  0.3984
20324SOL    HW162166   7.910   2.709   4.924  0.5077 -0.2341 -1.0361
20324SOL    HW262167   7.947   2.855   4.906  0.5302 -0.1091  0.0009
20325SOL     OW62168   6.534   6.155   3.330  0.3998  0.3135 -0.1308
20325SOL    HW162169   6.554   6.226   3.269  0.3374  1.4227  1.0836
20325SOL    HW262170   6.528   6.198   3.416  1.3150 -1.3057  0.7959
20326SOL     OW62171   7.900   7.371   4.177  0.0966 -0.3085  0.5150
20326SOL    HW162172   7.853   7.453   4.184 -1.5881 -1.3548  2.8194
20326SOL    HW262173   7.990   7.393   4.201 -0.4164  0.8323  1.5202
20327SOL     OW62174   6.985   5.718   3.385  0.0046  0.3392 -0.6081
20327SOL    HW162175   7.064   5.716   3.331  0.3957  1.7741 -0.1299
20327SOL    HW262176   6.932   5.787   3.347 -1.3135 -0.9679 -1.2611
20328SOL     OW62177   7.780   3.756   2.778  0.0167 -0.5755 -0.3503
20328SOL    HW162178   7.828   3.759   2.861 -0.2870 -0.0487 -0.1950
20328SOL    HW262179   7.688   3.762   2.803 -0.0909 -0.7256 -0.7087
20329SOL     OW62180   5.251   5.723   5.521 -0.3374 -0.4260  0.0392
20329SOL    HW162181   5.205   5.692   5.443 -0.9785  1.3204 -0.3057
20329SOL    HW262182   5.275   5.813   5.501  2.6778 -1.0188  0.4853
20330SOL     OW62183   5.711   5.986   4.166 -0.0026 -0.3279  0.4811
20330SOL    HW162184   5.616   5.982   4.162  0.0689 -2.1773 -1.2788
20330SOL    HW262185   5.735   6.059   4.109 -0.3630 -2.2991 -2.4552
20331SOL     OW62186   4.940   7.356   5.624 -0.5752  0.4368  0.4939
20331SOL    HW162187   5.014   7.355   5.564 -1.2917  1.6959 -0.4312
20331SOL    HW262188   4.929   7.264   5.649 -1.8361 -0.6025 -3.2890
20332SOL     OW62189   5.756   7.478   6.869  0.0627 -0.1325 -0.2080
20332SOL    HW162190   5.683   7.427   6.834  0.1658 -0.6350  0.2976
20332SOL    HW262191   5.832   7.450   6.818 -0.2219  0.9765 -1.2857
20333SOL     OW62192   0.268   1.413   5.160  0.0278 -0.6426  0.4364
20333SOL    HW162193   0.319   1.337   5.189 -1.0966 -0.9071  1.7712
20333SOL    HW262194   0.330   1.464   5.107  1.2605 -1.6628  0.8529
20334SOL     OW62195   4.457   6.628   0.697  0.3213  0.3419 -0.3688
20334SOL    HW162196   4.371   6.665   0.711 -0.3024 -1.2266  0.1844
20334SOL    HW262197   4.505   6.645   0.778 -0.0801 -0.3139  0.0207
20335SOL     OW62198   7.404   6.004   3.760  0.0007 -0.3473 -0.8071
20335SOL    HW162199   7.455   5.927   3.735 -1.4182 -1.6726  0.1407
20335SOL    HW262200   7.383   6.047   3.677  1.5996 -0.4314 -1.2833
20336SOL     OW62201   5.977   7.687   4.630 -0.2065  0.1133  0.0944
20336SOL    HW162202   6.031   7.687   4.708  1.8671 -0.0473 -1.2592
20336SOL    HW262203   5.917   7.760   4.642  1.9296  1.8889  0.6535
20337SOL     OW62204   4.284   7.252   5.387  0.1408  0.0997  0.0200
20337SOL    HW162205   4.318   7.284   5.471 -1.8607  1.6830  0.3084
20337SOL    HW262206   4.189   7.260   5.394 -0.1084  0.1166 -2.3348
20338SOL     OW62207   5.789   5.232   7.673 -0.0939  0.2003  0.1138
20338SOL    HW162208   5.752   5.316   7.646  0.8399  0.2574 -1.0558
20338SOL    HW262209   5.781   5.177   7.595  0.4734 -0.3953  0.4695
20339SOL     OW62210   7.226   4.223   1.445 -0.0820  0.6590 -0.0009
20339SOL    HW162211   7.208   4.182   1.360 -1.4355 -2.1596  1.5121
20339SOL    HW262212   7.151   4.279   1.461 -0.6096 -0.0484  0.0311
20340SOL     OW62213   1.535   1.836   8.400  0.4850 -0.2187  0.7051
20340SOL    HW162214   1.505   1.773   8.466 -0.3166  0.5510  1.0936
20340SOL    HW262215   1.510   1.798   8.316  0.0514 -0.4360  0.9349
20341SOL     OW62216   1.015   7.282   5.282 -0.1764  0.4584 -0.5596
20341SOL    HW162217   1.051   7.361   5.323  0.4492 -1.2817  2.5883
20341SOL    HW262218   1.081   7.214   5.299 -1.7515 -1.2756 -1.0256
20342SOL     OW62219   1.761   5.994   0.151  0.2875 -0.3194 -0.0144
20342SOL    HW162220   1.698   6.062   0.173 -0.1300 -0.3258 -1.1230
20342SOL    HW262221   1.737   5.920   0.207  1.4804  0.7911  2.0548
20343SOL     OW62222   3.756   4.640   0.589 -0.4698  0.5887  0.2022
20343SOL    HW162223   3.719   4.685   0.665 -1.4637 -0.2626  0.2409
20343SOL    HW262224   3.838   4.601   0.622  0.1182  1.8730  0.3078
20344SOL     OW62225   0.873   6.245   2.973  0.3186  0.9097 -0.2996
20344SOL    HW162226   0.888   6.331   3.013  1.0460  1.0183 -0.7832
20344SOL    HW262227   0.954   6.196   2.991  1.4908  1.5750 -3.1529
20345SOL     OW62228   7.714   2.681   3.598 -0.2019  0.1046 -0.4649
20345SOL    HW162229   7.642   2.622   3.622  0.3696 -1.8997 -3.2294
20345SOL    HW262230   7.764   2.691   3.679 -1.3925 -1.6572  0.5794
20346SOL     OW62231   2.712   7.971   5.022 -0.2660  0.6165  0.3037
20346SOL    HW162232   2.676   7.882   5.024 -0.5174  0.7182  0.4425
20346SOL    HW262233   2.671   8.015   5.096  0.1633  0.7334  0.4718
20347SOL     OW62234   8.499   4.646   8.417 -0.5395 -0.2771 -0.4324
20347SOL    HW162235   8.479   4.556   8.442 -1.7443 -0.5332 -2.1723
20347SOL    HW262236   8.421   4.696   8.439 -0.6681 -0.0581 -1.3317
20348SOL     OW62237   3.576   2.763   0.890  0.1377  0.4508 -0.4505
20348SOL    HW162238   3.550   2.676   0.922  0.9387  0.5552  0.5428
20348SOL    HW262239   3.541   2.824   0.955 -3.6496  1.2785 -2.9953
20349SOL     OW62240   8.227   8.081   2.483  0.9938  0.5832  0.4267
20349SOL    HW162241   8.202   7.991   2.463  0.0230  0.1659  3.1263
20349SOL    HW262242   8.162   8.134   2.438  1.9394  0.0164 -1.7105
20350SOL     OW62243   5.066   3.396   0.566 -0.5108  0.3771 -0.0505
20350SOL    HW162244   5.032   3.480   0.596 -1.3733  0.4287 -1.1312
20350SOL    HW262245   5.009   3.371   0.493 -0.4993 -1.3113  0.4632
20351SOL     OW62246   6.974   4.426   0.322 -0.2175  0.0048  0.0759
20351SOL    HW162247   6.940   4.465   0.242  1.8237  0.3567 -0.6899
20351SOL    HW262248   6.976   4.498   0.385 -0.9360 -0.0448  0.1621
20352SOL     OW62249   6.740   5.627   7.762  0.9079 -0.2230 -0.4308
20352SOL    HW162250   6.767   5.655   7.850  0.4744 -0.3261 -0.2642
20352SOL    HW262251   6.657   5.583   7.776  1.0848 -0.6821 -0.8312
20353SOL     OW62252   2.243   0.845   5.227 -0.4217  0.2809  0.7010
20353SOL    HW162253   2.280   0.780   5.167 -3.4698  0.2641 -1.4413
20353SOL    HW262254   2.193   0.793   5.290 -2.0185  0.4044 -0.3968
20354SOL     OW62255   5.461   2.438   1.410  0.0663 -0.6926  0.5128
20354SOL    HW162256   5.385   2.433   1.468 -0.4822  1.1427  0.0198
20354SOL    HW262257   5.536   2.419   1.466 -0.6806 -1.7423  1.1836
20355SOL     OW62258   5.606   0.240   5.084 -0.0732 -0.4801 -0.0558
20355SOL    HW162259   5.673   0.227   5.152 -1.3504  0.3519  1.4290
20355SOL    HW262260   5.611   0.333   5.064 -1.1808 -0.2678  0.5538
20356SOL     OW62261   6.658   4.132   1.845  0.1062 -0.4732  0.2356
20356SOL    HW162262   6.649   4.169   1.757  0.1520 -3.0321 -0.9379
20356SOL    HW262263   6.743   4.164   1.876  0.2837  0.1318 -0.8092
20357SOL     OW62264   6.653   3.721   3.499  0.1672  0.1870 -0.1107
20357SOL    HW162265   6.569   3.675   3.487  1.2536 -2.1943  0.6365
20357SOL    HW262266   6.719   3.657   3.473  1.7811  2.0090 -0.6895
20358SOL     OW62267   5.936   4.092   3.860  0.1781 -0.2412 -0.4379
20358SOL    HW162268   5.946   4.169   3.805  1.4613 -1.0838 -1.4273
20358SOL    HW262269   5.946   4.125   3.949 -0.9593  0.9779 -0.7301
20359SOL     OW62270   1.594   3.654   7.399  0.5988 -0.2001  0.3029
20359SOL    HW162271   1.565   3.744   7.416 -1.5208 -0.4082 -1.6193
20359SOL    HW262272   1.565   3.604   7.475 -2.2763  0.0511 -0.4967
20360SOL     OW62273   4.866   1.339   6.285  0.8965  0.4963 -0.3071
20360SOL    HW162274   4.896   1.430   6.277 -0.1281  0.7683 -1.4097
20360SOL    HW262275   4.919   1.302   6.355  2.7564  1.3418 -1.2121
20361SOL     OW62276   6.114   3.463   6.286 -0.5400  0.3442  0.4959
20361SOL    HW162277   6.133   3.396   6.352  0.1362 -1.9391 -1.8480
20361SOL    HW262278   6.188   3.457   6.225 -0.5464  3.1827  0.0922
20362SOL     OW62279   7.204   6.203   0.863  0.1667  0.0984 -0.0621
20362SOL    HW162280   7.270   6.209   0.932 -0.4918  0.0868  0.5856
20362SOL    HW262281   7.193   6.293   0.832 -0.8417  0.4286  1.1351
20363SOL     OW62282   7.044   4.457   3.183 -0.1032 -0.7040 -0.0731
20363SOL    HW162283   7.091   4.401   3.245  0.3959 -1.3045 -0.9875
20363SOL    HW262284   7.112   4.510   3.142 -0.4305 -0.3379 -0.1470
20364SOL     OW62285   8.084   3.628   7.625 -0.0647 -0.5187  0.3019
20364SOL    HW162286   8.024   3.664   7.690 -0.6792 -1.9115  0.5424
20364SOL    HW262287   8.139   3.566   7.674 -0.5427 -1.5940 -0.4743
20365SOL     OW62288   3.348   6.056   2.170  0.2160 -0.0857  0.3532
20365SOL    HW162289   3.301   6.079   2.089 -1.2576  0.1937  1.2407
20365SOL    HW262290   3.430   6.018   2.140 -1.1588 -1.9794 -1.3494
20366SOL     OW62291   7.082   4.708   0.930  0.6855  0.2745 -0.3306
20366SOL    HW162292   6.999   4.673   0.963 -1.0208  2.5960 -1.7686
20366SOL    HW262293   7.089   4.671   0.841  0.7956  0.6434 -0.4766
20367SOL     OW62294   2.282   7.696   2.311 -0.0621 -0.5691  0.2408
20367SOL    HW162295   2.332   7.704   2.229 -0.4914  0.8234  0.0781
20367SOL    HW262296   2.349   7.690   2.379  0.3002 -1.5387 -0.1872
20368SOL     OW62297   1.772   7.970   3.298  0.4925  0.6479 -0.3337
20368SOL    HW162298   1.863   7.971   3.326  0.4361  1.0787 -0.1483
20368SOL    HW262299   1.727   7.917   3.363  0.6730  0.1252 -0.6331
20369SOL     OW62300   6.965   0.574   4.690  0.2175  0.0135  0.0031
20369SOL    HW162301   7.021   0.648   4.715 -0.9085  0.8493  0.1490
20369SOL    HW262302   7.020   0.520   4.633  2.2173 -0.9259  2.6320
20370SOL     OW62303   3.212   1.255   5.476 -0.2305  0.1346 -0.9762
20370SOL    HW162304   3.217   1.319   5.404  0.9971 -2.7354 -3.6797
20370SOL    HW262305   3.271   1.291   5.543  0.7700  1.6442 -2.5663
20371SOL     OW62306   2.828   0.534   4.044 -0.0742  0.2034  0.1919
20371SOL    HW162307   2.779   0.462   4.083 -1.2023  0.2700 -1.0191
20371SOL    HW262308   2.784   0.613   4.077  0.2735  0.3069  0.4122
20372SOL     OW62309   5.589   1.217   5.915 -0.9324 -0.0996 -0.5496
20372SOL    HW162310   5.610   1.285   5.851  1.8307 -0.9274 -0.6525
20372SOL    HW262311   5.610   1.257   6.000 -0.8963 -0.2746 -0.4756
20373SOL     OW62312   7.020   1.741   0.922  0.9411 -0.1013  0.3347
20373SOL    HW162313   7.057   1.818   0.966  1.6932 -0.0921 -0.2958
20373SOL    HW262314   7.041   1.668   0.981  2.1362 -0.1186 -0.0944
20374SOL     OW62315   6.297   8.463   4.673  0.6719 -0.5378 -0.3675
20374SOL    HW162316   6.248   8.546   4.672  0.3083 -0.7224  0.7488
20374SOL    HW262317   6.266   8.416   4.596  0.4093  0.0945 -0.6559
20375SOL     OW62318   1.863   5.159   1.871 -0.1223 -0.2525 -0.1944
20375SOL    HW162319   1.770   5.178   1.874  0.1558  1.5805 -1.4686
20375SOL    HW262320   1.897   5.194   1.954 -0.4871 -0.4001  0.0178
20376SOL     OW62321   1.817   7.318   3.512 -0.5022 -0.2282 -0.9939
20376SOL    HW162322   1.811   7.223   3.514 -0.4177 -0.2290  0.3560
20376SOL    HW262323   1.728   7.348   3.498 -0.5857 -0.5052 -1.0492
20377SOL     OW62324   1.973   4.312   1.860  0.2391  0.0677  0.1224
20377SOL    HW162325   1.995   4.332   1.951  1.0310 -2.5815  0.5845
20377SOL    HW262326   2.056   4.288   1.819 -0.3288 -0.2096 -0.9021
20378SOL     OW62327   2.090   6.078   1.026 -0.8622 -0.2824  0.4527
20378SOL    HW162328   2.106   6.071   0.932 -0.6692  0.3986  0.4290
20378SOL    HW262329   2.039   5.999   1.048  1.0655 -1.6580  0.2177
20379SOL     OW62330   8.544   0.415   5.214 -0.2140 -0.2655 -0.0934
20379SOL    HW162331   8.519   0.493   5.163  1.7874  1.2155  1.0242
20379SOL    HW262332   8.496   0.424   5.296  0.9963  0.5348  0.5505
20380SOL     OW62333   7.711   6.556   3.038 -0.1156 -0.4076 -0.6206
20380SOL    HW162334   7.777   6.585   2.976  1.6797  0.6209  1.6504
20380SOL    HW262335   7.760   6.521   3.112 -2.0836  0.1916  1.0797
20381SOL     OW62336   8.390   1.585   4.107 -0.6720  0.3023 -0.3138
20381SOL    HW162337   8.320   1.525   4.131 -0.0688 -0.0576  0.6058
20381SOL    HW262338   8.469   1.547   4.146  0.2480  0.1188 -2.2410
20382SOL     OW62339   0.628   1.336   7.290  0.7082 -0.1978  0.3649
20382SOL    HW162340   0.707   1.389   7.281 -1.0407  2.3640 -1.4397
20382SOL    HW262341   0.593   1.331   7.201 -0.8758 -1.7512  1.0163
20383SOL     OW62342   1.141   0.697   6.187 -0.2317  0.2169  0.2485
20383SOL    HW162343   1.058   0.722   6.149 -0.1152 -0.0552 -0.1973
20383SOL    HW262344   1.151   0.604   6.163  0.7562  0.5586 -0.7474
20384SOL     OW62345   6.964   1.140   8.119 -0.1710  0.1548  0.3693
20384SOL    HW162346   6.886   1.192   8.099 -1.0206 -0.0659  2.8093
20384SOL    HW262347   6.963   1.069   8.055  0.3603  2.3856 -2.2863
20385SOL     OW62348   0.680   7.280   5.221  0.3913  0.0685  0.7231
20385SOL    HW162349   0.589   7.250   5.215  0.6083 -0.3376 -0.8832
20385SOL    HW262350   0.730   7.200   5.237  0.5672  0.1256  0.4643
20386SOL     OW62351   8.085   3.178   7.798 -0.1828 -0.7706 -0.1448
20386SOL    HW162352   8.137   3.100   7.813 -0.4906 -0.7039  1.3797
20386SOL    HW262353   8.005   3.165   7.848 -1.1913 -0.3950 -1.5760
20387SOL     OW62354   3.646   8.142   4.579  0.2489  0.3507 -1.0618
20387SOL    HW162355   3.711   8.125   4.511  0.2784  0.5655 -1.0876
20387SOL    HW262356   3.575   8.080   4.560 -0.4255  1.4176 -2.1967
20388SOL     OW62357   3.791   0.822   7.201  0.3144 -0.0359 -0.2333
20388SOL    HW162358   3.696   0.827   7.213  0.2203 -0.3146 -0.8218
20388SOL    HW262359   3.807   0.729   7.181  0.4296  0.4117 -2.4172
20389SOL     OW62360   3.802   6.130   3.141 -0.6016 -0.6865  0.4096
20389SOL    HW162361   3.821   6.044   3.104 -0.3119  0.2635 -1.7895
20389SOL    HW262362   3.715   6.121   3.180 -1.4153 -1.4927 -1.4940
20390SOL     OW62363   7.475   5.914   6.614  0.2949 -1.1747  0.0820
20390SOL    HW162364   7.500   5.905   6.706  3.2248 -2.3665 -0.7423
20390SOL    HW262365   7.510   5.999   6.588  1.1135 -1.6497 -0.3896
20391SOL     OW62366   2.941   2.602   4.462  0.1451 -0.6343  0.3756
20391SOL    HW162367   2.928   2.529   4.523 -2.0700  0.7898  1.7357
20391SOL    HW262368   2.897   2.573   4.382  0.5528 -1.3539  0.4016
20392SOL     OW62369   6.381   2.415   7.216 -0.4568  0.7808  0.0824
20392SOL    HW162370   6.469   2.414   7.177 -1.5390  0.3007 -2.5337
20392SOL    HW262371   6.351   2.325   7.207 -1.5137  1.1104  0.2577
20393SOL     OW62372   5.284   7.983   4.415 -0.3083 -0.6129  0.3051
20393SOL    HW162373   5.353   8.028   4.367 -0.0530 -0.2373  1.0062
20393SOL    HW262374   5.203   8.013   4.374 -0.0678 -1.2736 -0.7093
20394SOL     OW62375   5.246   0.857   6.083 -0.2087  0.2495 -0.5324
20394SOL    HW162376   5.226   0.812   6.001 -0.8358  0.5812 -0.5687
20394SOL    HW262377   5.183   0.929   6.087 -0.1614  0.2585  0.2275
20395SOL     OW62378   6.012   8.205   2.847  0.1826 -0.1160  0.3622
20395SOL    HW162379   5.956   8.133   2.819  0.1566 -0.5851  1.5936
20395SOL    HW262380   6.002   8.271   2.778  0.9850 -1.6697 -1.3200
20396SOL     OW62381   1.708   1.662   2.006  0.1902  0.3371  0.4365
20396SOL    HW162382   1.748   1.575   2.004 -0.2115  0.1324 -2.0636
20396SOL    HW262383   1.781   1.723   1.996  0.2025  0.0897 -1.2428
20397SOL     OW62384   2.228   5.734   2.643  0.6200 -0.7669  0.2858
20397SOL    HW162385   2.171   5.810   2.650  0.7402 -0.7834  1.6160
20397SOL    HW262386   2.220   5.689   2.727  2.0108 -1.1793  0.2330
20398SOL     OW62387   3.505   0.953   3.636 -0.1901 -0.0285 -0.4072
20398SOL    HW162388   3.465   0.984   3.717 -0.1241 -0.0535 -0.3649
20398SOL    HW262389   3.532   1.033   3.590 -0.1351 -0.0180 -0.3568
20399SOL     OW62390   2.915   2.177   6.234 -0.2804 -0.0164 -0.2491
20399SOL    HW162391   2.854   2.114   6.271 -0.0270 -1.4144 -2.1092
20399SOL    HW262392   2.860   2.243   6.192 -0.5149 -0.0355  0.0250
20400SOL     OW62393   2.602   3.205   6.072 -0.1258 -0.0836  0.0768
20400SOL    HW162394   2.692   3.235   6.058  0.1852 -1.0541 -0.0970
20400SOL    HW262395   2.567   3.191   5.984 -0.7959  1.2129  0.1044
20401SOL     OW62396   4.639   6.836   0.586  0.2414  0.2645  0.1713
20401SOL    HW162397   4.551   6.814   0.618 -1.5762  1.6849 -3.3096
20401SOL    HW262398   4.682   6.879   0.660 -1.5513 -1.4356  2.3178
20402SOL     OW62399   1.017   5.237   5.078  0.1629  0.4782  0.0927
20402SOL    HW162400   1.110   5.260   5.081 -0.2058  2.1119  0.2595
20402SOL    HW262401   0.988   5.242   5.169 -0.0238 -0.4109  0.0939
20403SOL     OW62402   0.782   4.352   4.787  0.1498 -0.9334  0.0612
20403SOL    HW162403   0.861   4.348   4.733 -0.7727 -0.8194 -1.3494
20403SOL    HW262404   0.808   4.405   4.863  1.3216 -0.5673 -0.5657
20404SOL     OW62405   7.758   1.960   0.493  0.2743  0.1958 -0.0226
20404SOL    HW162406   7.817   1.950   0.568 -0.1049  0.3065  0.2975
20404SOL    HW262407   7.705   1.881   0.493  1.2654 -0.4925 -1.0789
20405SOL     OW62408   3.484   5.891   4.082  0.8094 -0.5579 -0.4413
20405SOL    HW162409   3.391   5.878   4.103  0.8195  0.3188  0.2149
20405SOL    HW262410   3.502   5.830   4.011 -0.4990 -0.1170 -1.1744
20406SOL     OW62411   2.627   4.395   7.429  0.3727  0.1601 -0.1928
20406SOL    HW162412   2.659   4.481   7.403  2.0227 -0.1122  0.7686
20406SOL    HW262413   2.705   4.340   7.432 -0.6306 -1.3726 -0.7213
20407SOL     OW62414   2.762   1.160   1.579 -0.2468  0.5360  0.4910
20407SOL    HW162415   2.740   1.170   1.671 -1.5036 -2.3370  0.6078
20407SOL    HW262416   2.835   1.098   1.578  1.1572  2.0936 -0.4287
20408SOL     OW62417   6.428   5.672   2.008  0.2890  0.5557 -0.1758
20408SOL    HW162418   6.492   5.607   2.038 -0.9367 -0.7095 -0.2094
20408SOL    HW262419   6.469   5.756   2.028  0.6511 -0.1933  2.6488
20409SOL     OW62420   3.863   3.650   7.639  0.0431  0.7223 -0.1339
20409SOL    HW162421   3.911   3.720   7.684  0.6290  1.1322 -1.3488
20409SOL    HW262422   3.839   3.589   7.709  2.0008  0.6925  0.5771
20410SOL     OW62423   7.509   8.187   1.942 -0.3102 -0.5890  0.2061
20410SOL    HW162424   7.510   8.176   1.847 -0.1370 -0.5351  0.2017
20410SOL    HW262425   7.500   8.281   1.955  0.9565 -0.4603  0.2391
20411SOL     OW62426   3.032   7.867   5.285  0.4813  0.0057 -0.6657
20411SOL    HW162427   3.061   7.958   5.276 -1.4719  0.5732 -2.0588
20411SOL    HW262428   2.989   7.864   5.371  0.7136  0.3537 -0.5362
20412SOL     OW62429   7.497   3.614   5.736  0.0595 -0.2642  0.5104
20412SOL    HW162430   7.561   3.679   5.765 -0.4075 -0.0965  1.1888
20412SOL    HW262431   7.418   3.635   5.785 -0.5009 -0.5086 -0.2631
20413SOL     OW62432   2.090   4.208   5.541  0.8610  0.0459  0.5655
20413SOL    HW162433   2.068   4.299   5.562 -0.2148 -0.1375  0.2754
20413SOL    HW262434   2.006   4.168   5.519  1.6290 -0.3288 -1.9405
20414SOL     OW62435   5.463   1.684   7.528 -0.5724 -0.0810 -0.0013
20414SOL    HW162436   5.531   1.698   7.463  0.5069 -1.5233  0.7520
20414SOL    HW262437   5.464   1.763   7.582 -0.8388  0.7231 -1.1276
20415SOL     OW62438   6.938   7.720   7.358  0.3896  0.4958 -0.3351
20415SOL    HW162439   6.919   7.628   7.340  2.2830 -0.1228  0.5644
20415SOL    HW262440   6.936   7.761   7.271  1.7721 -0.8657 -1.0629
20416SOL     OW62441   6.767   1.924   3.880 -0.0423 -0.2593  0.1105
20416SOL    HW162442   6.681   1.925   3.839 -1.0982  1.3546  2.1911
20416SOL    HW262443   6.749   1.912   3.973  2.1380 -1.8753  0.4095
20417SOL     OW62444   1.331   3.628   5.207  0.4982 -0.6996 -0.4548
20417SOL    HW162445   1.316   3.658   5.296 -1.8883 -0.2615 -0.9460
20417SOL    HW262446   1.349   3.708   5.157  3.8395 -1.1007 -0.1061
20418SOL     OW62447   5.513   2.190   3.242  0.1383  0.3483  0.1964
20418SOL    HW162448   5.453   2.116   3.242 -0.6528  0.9614 -0.7323
20418SOL    HW262449   5.457   2.267   3.249  0.7355  0.9621 -1.2597
20419SOL     OW62450   1.848   5.213   6.784  0.3552 -0.4254 -0.1935
20419SOL    HW162451   1.877   5.202   6.693  2.7874  2.7539  0.0264
20419SOL    HW262452   1.912   5.164   6.836 -0.4148 -1.3559 -0.0905
20420SOL     OW62453   5.542   5.149   2.980 -0.0127 -0.3792  0.0079
20420SOL    HW162454   5.603   5.090   2.936 -0.6414 -0.2780 -1.0230
20420SOL    HW262455   5.590   5.231   2.989  1.2084 -1.2487  2.2765
20421SOL     OW62456   1.231   0.913   0.516 -0.8587  0.2391  0.3048
20421SOL    HW162457   1.325   0.896   0.519 -1.0612 -0.8222  1.3045
20421SOL    HW262458   1.222   1.004   0.545 -0.0339  0.9346 -1.4759
20422SOL     OW62459   4.319   3.384   2.507 -0.0453  0.3605  0.0326
20422SOL    HW162460   4.357   3.459   2.461  2.5747 -1.5986 -1.2500
20422SOL    HW262461   4.320   3.409   2.599  1.2567  1.7087 -0.3128
20423SOL     OW62462   7.708   0.112   6.282  0.1981 -0.3040  0.4098
20423SOL    HW162463   7.750   0.073   6.359  1.8169  0.9267  0.2142
20423SOL    HW262464   7.672   0.194   6.314  0.1892 -0.1566  0.0239
20424SOL     OW62465   1.168   4.269   3.481  0.1202 -0.3001  0.0097
20424SOL    HW162466   1.250   4.315   3.503  0.0768  0.1571 -0.7225
20424SOL    HW262467   1.169   4.191   3.536  0.8308 -0.0725  0.3448
20425SOL     OW62468   5.187   6.930   1.784  0.5592 -0.1372 -0.2667
20425SOL    HW162469   5.264   6.923   1.728  0.4618 -1.9420 -0.2273
20425SOL    HW262470   5.121   6.974   1.729  0.6151 -1.4427 -1.4296
20426SOL     OW62471   7.129   0.611   1.993  0.1564  0.3299  0.6774
20426SOL    HW162472   7.097   0.625   2.082 -0.3576  1.1253  0.3851
20426SOL    HW262473   7.052   0.625   1.938  0.2438 -1.1068  0.1528
20427SOL     OW62474   1.792   0.024   4.896  0.2032  0.2439  1.1324
20427SOL    HW162475   1.839   0.038   4.814  0.9129 -0.8903  1.3317
20427SOL    HW262476   1.771  -0.069   4.896 -0.4432  0.3821  1.9078
20428SOL     OW62477   2.799   2.912   5.780  0.0311  0.0802 -0.3005
20428SOL    HW162478   2.714   2.948   5.754  0.2701 -0.0008 -1.2211
20428SOL    HW262479   2.785   2.879   5.869 -1.1180 -0.6697 -0.7399
20429SOL     OW62480   5.853   6.834   6.493 -0.0379 -0.4289 -0.5662
20429SOL    HW162481   5.921   6.865   6.553 -3.2346  0.0887  3.2302
20429SOL    HW262482   5.850   6.900   6.424  0.0634  2.3295  1.8762
20430SOL     OW62483   2.148   4.523   4.179  0.4288  0.1359 -0.0630
20430SOL    HW162484   2.189   4.587   4.237  2.0565 -1.5999  0.8219
20430SOL    HW262485   2.057   4.519   4.209  1.0154 -0.0892  1.8481
20431SOL     OW62486   8.495   7.312   8.532 -0.0201 -0.4265 -0.5618
20431SOL    HW162487   8.515   7.324   8.625  0.9551  1.2766 -0.9539
20431SOL    HW262488   8.400   7.321   8.527  0.0802  1.3347  0.0573
20432SOL     OW62489   7.251   8.577   3.500 -0.0119 -0.1472 -0.0951
20432SOL    HW162490   7.189   8.525   3.449  1.0868 -1.1986 -0.4055
20432SOL    HW262491   7.312   8.612   3.435 -0.1911  0.7646  0.2193
20433SOL     OW62492   3.630   1.786   7.437 -0.0486 -0.1374 -0.1114
20433SOL    HW162493   3.609   1.879   7.452  0.2328 -0.0098 -0.4829
20433SOL    HW262494   3.726   1.783   7.442 -0.1047 -0.6152  1.0455
20434SOL     OW62495   5.557   3.351   4.027 -0.0777  0.0420  0.0853
20434SOL    HW162496   5.628   3.327   4.087  0.0482 -1.9841 -0.7921
20434SOL    HW262497   5.593   3.423   3.976  0.8499 -0.0590  0.5619
20435SOL     OW62498   6.283   3.506   4.543  0.1087  0.6236  0.6732
20435SOL    HW162499   6.334   3.428   4.519 -1.5762 -0.6166  0.9778
20435SOL    HW262500   6.308   3.524   4.633  0.4734  0.4024  0.6203
20436SOL     OW62501   8.475   6.328   4.486 -0.0491  0.3471  0.0911
20436SOL    HW162502   8.408   6.363   4.545  0.2664  2.4031 -0.6915
20436SOL    HW262503   8.476   6.388   4.412  3.1292  0.8544  0.3825
20437SOL     OW62504   1.623   2.783   5.966 -0.3418  0.5733  0.8929
20437SOL    HW162505   1.548   2.766   6.023 -0.3882 -1.4826  0.3166
20437SOL    HW262506   1.616   2.716   5.898  0.6261  1.9373 -0.6115
20438SOL     OW62507   8.247   4.261   6.579 -0.2751 -0.4062  0.4878
20438SOL    HW162508   8.158   4.256   6.614 -0.2737  1.0736  0.7544
20438SOL    HW262509   8.249   4.342   6.528  0.4563 -1.2525 -0.9019
20439SOL     OW62510   7.318   5.178   4.257 -0.1080  0.1971  0.0356
20439SOL    HW162511   7.342   5.129   4.178 -0.4775  1.0900 -0.6539
20439SOL    HW262512   7.379   5.251   4.258  0.0961  0.0185  0.7602
20440SOL     OW62513   4.653   5.643   3.009  0.2346  0.6606 -0.6415
20440SOL    HW162514   4.656   5.671   2.918  2.1350  2.9836  0.0152
20440SOL    HW262515   4.720   5.575   3.016  1.9454  2.2888 -0.5241
20441SOL     OW62516   6.189   8.577   1.347 -0.3497 -0.3650 -0.2330
20441SOL    HW162517   6.203   8.559   1.254 -1.3598  0.3711 -0.5457
20441SOL    HW262518   6.243   8.655   1.364 -0.2358 -0.4457 -0.2237
20442SOL     OW62519   3.999   5.050   5.968  0.6644  0.0189 -0.2436
20442SOL    HW162520   4.091   5.064   5.946 -0.0554  0.1290 -3.8395
20442SOL    HW262521   3.950   5.102   5.903 -1.9670 -0.0051  1.5482
20443SOL     OW62522   5.302   2.758   7.154 -0.4131 -0.0477 -0.4595
20443SOL    HW162523   5.361   2.699   7.199  0.4731  2.0331  1.2921
20443SOL    HW262524   5.296   2.835   7.211 -3.3397  0.6228 -1.4806
20444SOL     OW62525   7.740   0.451   7.819  0.0156  0.3532  0.0913
20444SOL    HW162526   7.805   0.424   7.884 -0.8781  1.0971  1.3562
20444SOL    HW262527   7.659   0.461   7.870 -1.1444 -0.7340 -1.4603
20445SOL     OW62528   2.829   4.076   7.299 -0.1888  0.2982 -0.6781
20445SOL    HW162529   2.903   4.101   7.354 -0.3522 -0.1101 -0.2714
20445SOL    HW262530   2.753   4.081   7.357 -0.2930 -0.6569 -0.7166
20446SOL     OW62531   1.609   6.097   7.693 -0.3552 -0.0815 -0.3105
20446SOL    HW162532   1.525   6.138   7.672 -0.7874 -1.0961 -0.6189
20446SOL    HW262533   1.591   6.003   7.693  1.0080 -0.3752 -1.4004
20447SOL     OW62534   1.393   5.895   0.459 -0.3086  0.1469  0.8525
20447SOL    HW162535   1.316   5.950   0.448 -0.2748  0.5889  2.5453
20447SOL    HW262536   1.368   5.831   0.526  0.3640 -0.5639  0.4477
20448SOL     OW62537   2.839   4.384   7.699 -0.4896  0.2122 -0.5485
20448SOL    HW162538   2.874   4.446   7.634 -0.4449 -0.5335 -1.2473
20448SOL    HW262539   2.916   4.346   7.740 -0.5114  1.3720  0.6447
20449SOL     OW62540   3.620   6.199   6.933  0.2992  0.3962  0.5240
20449SOL    HW162541   3.559   6.133   6.899 -0.5043  1.1507  0.4739
20449SOL    HW262542   3.646   6.164   7.019 -0.1052  0.0010  0.4936
20450SOL     OW62543   7.369   3.535   4.730  0.1186  0.1221  0.3650
20450SOL    HW162544   7.391   3.604   4.793 -0.2580  2.4740 -1.9019
20450SOL    HW262545   7.293   3.491   4.768 -0.0966  1.4506  1.5672
20451SOL     OW62546   0.784   5.307   4.324  0.4083  0.7134  0.4444
20451SOL    HW162547   0.807   5.326   4.233 -0.6013 -0.1222 -0.0118
20451SOL    HW262548   0.729   5.380   4.351 -1.7140 -0.4162 -0.6052
20452SOL     OW62549   5.858   5.152   3.376 -0.3621 -0.2223  0.1909
20452SOL    HW162550   5.906   5.190   3.302 -2.8834  0.2784 -1.3119
20452SOL    HW262551   5.879   5.059   3.374  0.2851 -0.0650 -0.6020
20453SOL     OW62552   8.097   0.250   1.448  0.0249 -0.1144 -0.1730
20453SOL    HW162553   8.030   0.318   1.461  0.4306  0.0556  1.1944
20453SOL    HW262554   8.078   0.214   1.362 -0.4843  1.4252 -0.7392
20454SOL     OW62555   6.379   8.307   1.379  0.7372  0.3940  0.0754
20454SOL    HW162556   6.371   8.353   1.463  1.0970 -0.7452  0.7465
20454SOL    HW262557   6.292   8.312   1.341  0.7779  1.6937  0.0823
20455SOL     OW62558   7.726   7.330   1.978 -0.0083 -0.0094 -0.2695
20455SOL    HW162559   7.716   7.255   1.919 -1.4657  1.5818 -2.2059
20455SOL    HW262560   7.813   7.364   1.959 -0.4178  0.4175 -1.5211
20456SOL     OW62561   2.784   0.114   1.413 -0.3091 -0.2902  0.6975
20456SOL    HW162562   2.689   0.106   1.404 -0.4084  0.9121  0.5091
20456SOL    HW262563   2.800   0.108   1.507 -0.8240  1.6725  0.9482
20457SOL     OW62564   7.676   4.843   0.433  0.3934  0.5117  0.3856
20457SOL    HW162565   7.617   4.906   0.392  1.2819  1.2615  0.2356
20457SOL    HW262566   7.740   4.896   0.479  1.5195 -0.2636 -0.2369
20458SOL     OW62567   5.172   8.110   3.428  1.0975  0.3844 -0.2338
20458SOL    HW162568   5.085   8.102   3.389 -0.1079 -0.9687  2.4795
20458SOL    HW262569   5.184   8.204   3.441 -1.4819  0.5018  2.2912
20459SOL     OW62570   4.028   4.136   1.062 -0.4876 -0.3128  0.1579
20459SOL    HW162571   4.037   4.150   1.156 -0.4613  1.0563 -0.0317
20459SOL    HW262572   3.936   4.110   1.050 -0.8707  0.8625  0.4266
20460SOL     OW62573   0.200   7.933   2.753 -0.4955 -0.5505 -0.5043
20460SOL    HW162574   0.174   8.020   2.723 -2.1356 -0.9742 -0.4360
20460SOL    HW262575   0.117   7.887   2.768  0.3155 -1.7483  0.5899
20461SOL     OW62576   5.804   4.929   6.375  0.2890  0.0752  0.0146
20461SOL    HW162577   5.747   4.934   6.299 -1.3765 -0.7202  1.1483
20461SOL    HW262578   5.858   4.851   6.360  0.0213 -0.0375 -0.3661
20462SOL     OW62579   4.337   5.482   1.967 -0.3147  0.2893  0.3370
20462SOL    HW162580   4.288   5.559   1.939 -1.0886 -0.6565 -1.0943
20462SOL    HW262581   4.390   5.459   1.890  0.2945 -0.2992  0.9202
20463SOL     OW62582   0.054   4.594   4.429 -0.2298  0.3549  0.0172
20463SOL    HW162583   0.138   4.624   4.462 -0.9982  2.3619  0.3061
20463SOL    HW262584   0.065   4.589   4.334  0.1067  1.0255  0.0169
20464SOL     OW62585   5.664   5.347   7.208  0.7713  0.0458 -0.3504
20464SOL    HW162586   5.602   5.322   7.140 -0.9034 -0.3468  1.2326
20464SOL    HW262587   5.730   5.277   7.208 -1.0663 -1.8000  0.6189
20465SOL     OW62588   0.071   0.268   2.282  0.3226 -0.2681 -0.1436
20465SOL    HW162589   0.112   0.252   2.197  1.6538  1.2225  0.1735
20465SOL    HW262590   0.111   0.349   2.313 -1.2457  0.0307  1.2380
20466SOL     OW62591   8.242   8.068   6.512 -0.4708 -0.2971  0.0870
20466SOL    HW162592   8.155   8.058   6.551  0.1247 -1.0613  1.2498
20466SOL    HW262593   8.303   8.062   6.585  0.5577  0.7899 -0.6364
20467SOL     OW62594   0.269   8.292   6.851 -0.0728  0.2766  0.3674
20467SOL    HW162595   0.217   8.289   6.931  0.3379 -1.9233  0.6118
20467SOL    HW262596   0.210   8.331   6.786 -0.0507  3.1393  1.9104
20468SOL     OW62597   4.161   2.008   2.162 -0.1774 -0.1489  0.3224
20468SOL    HW162598   4.243   2.010   2.113  1.4501 -0.2714  2.8213
20468SOL    HW262599   4.165   1.926   2.213 -0.5997  1.0115  2.3591
20469SOL     OW62600   7.006   4.084   4.515  0.0423 -0.0484  0.1853
20469SOL    HW162601   6.966   4.040   4.589 -0.4768 -0.1224 -0.1323
20469SOL    HW262602   7.001   4.020   4.443 -2.3556  1.1043 -0.7839
20470SOL     OW62603   1.574   0.404   8.374 -0.1935 -0.1879  0.6996
20470SOL    HW162604   1.655   0.372   8.412  1.1115  1.2709 -0.6846
20470SOL    HW262605   1.570   0.363   8.287 -1.4758 -1.0100  1.1128
20471SOL     OW62606   1.365   6.343   3.184  0.0314 -0.0338  0.0867
20471SOL    HW162607   1.403   6.381   3.264 -2.0521  0.4145  0.9550
20471SOL    HW262608   1.311   6.414   3.149 -0.4795 -0.8142 -0.7267
20472SOL     OW62609   4.987   1.605   2.300 -0.0415 -0.1973 -0.1830
20472SOL    HW162610   4.892   1.610   2.313  0.0141  0.7613 -0.0483
20472SOL    HW262611   5.011   1.518   2.329 -0.7017  0.0049  1.0193
20473SOL     OW62612   8.153   7.329   0.935 -0.1003  0.6400  0.7791
20473SOL    HW162613   8.157   7.263   0.866  2.2376 -0.0450  1.4713
20473SOL    HW262614   8.197   7.288   1.010 -1.7204  1.7011  2.3965
20474SOL     OW62615   1.837   5.914   4.058 -0.0906 -0.4671 -0.9774
20474SOL    HW162616   1.877   5.839   4.015 -0.7607 -0.4503 -1.6560
20474SOL    HW262617   1.744   5.893   4.061 -0.5684  1.0587 -2.7885
20475SOL     OW62618   0.520   3.079   5.293  0.5368 -0.1577 -0.2083
20475SOL    HW162619   0.585   3.149   5.284  0.2340  0.1325 -0.1615
20475SOL    HW262620   0.532   3.024   5.216 -0.0710  0.6545 -0.8982
20476SOL     OW62621   5.363   6.992   5.890  0.1283  0.4866 -0.3328
20476SOL    HW162622   5.307   6.922   5.923 -0.1949 -0.8999 -3.4701
20476SOL    HW262623   5.452   6.961   5.905  0.0274  0.6790  0.7181
20477SOL     OW62624   0.949   0.903   3.482  0.5665  0.2806  0.1051
20477SOL    HW162625   0.877   0.945   3.434  0.1164 -1.0091 -0.3764
20477SOL    HW262626   0.952   0.814   3.448  0.5248 -0.5583  2.1481
20478SOL     OW62627   1.680   5.648   6.174 -0.1541 -0.2789  0.2599
20478SOL    HW162628   1.633   5.731   6.166  0.2059 -0.0579  0.3852
20478SOL    HW262629   1.718   5.651   6.262  0.4972 -0.2364 -0.0168
20479SOL     OW62630   1.611   3.748   5.666 -0.1747 -0.2296 -0.0887
20479SOL    HW162631   1.687   3.694   5.646 -0.6267 -0.4079 -1.3911
20479SOL    HW262632   1.576   3.773   5.581 -2.8460 -1.8981  0.4077
20480SOL     OW62633   1.717   2.029   3.850  0.0313 -0.2558 -0.0757
20480SOL    HW162634   1.793   2.088   3.854  0.6540 -1.0882  0.5720
20480SOL    HW262635   1.747   1.955   3.797 -0.1538 -0.8299  0.6088
20481SOL     OW62636   5.230   1.250   0.489  0.2986 -0.3050  0.4562
20481SOL    HW162637   5.241   1.187   0.418 -2.2410  0.6556 -0.9315
20481SOL    HW262638   5.256   1.203   0.568  0.5618 -2.3361 -0.7749
20482SOL     OW62639   5.655   7.828   2.973 -0.7375 -0.3619  0.1141
20482SOL    HW162640   5.626   7.878   3.049 -0.8177 -0.4191  0.1228
20482SOL    HW262641   5.667   7.893   2.904 -0.6167 -0.3043  0.1906
20483SOL     OW62642   1.049   1.211   2.777  0.3515  0.6404  0.4529
20483SOL    HW162643   1.084   1.262   2.704  0.0666 -1.5109 -1.2486
20483SOL    HW262644   0.954   1.217   2.767  0.3014 -1.1932 -0.5336
20484SOL     OW62645   3.549   5.556   2.534  0.4989  0.6224 -0.3368
20484SOL    HW162646   3.495   5.603   2.470  0.9841  0.3802 -0.9298
20484SOL    HW262647   3.561   5.618   2.605 -1.1604  0.4406  0.1474
20485SOL     OW62648   6.048   1.728   7.742  0.1245 -0.0325  0.2881
20485SOL    HW162649   5.966   1.775   7.758 -0.1108  0.0411 -1.0150
20485SOL    HW262650   6.021   1.638   7.728  0.1897  0.1025 -0.7541
20486SOL     OW62651   6.072   0.364   6.341  0.4958  0.1611  0.3864
20486SOL    HW162652   6.029   0.415   6.272 -0.0742 -1.9488 -0.9107
20486SOL    HW262653   6.011   0.366   6.414 -0.3097 -0.0555 -0.2591
20487SOL     OW62654   4.808   8.106   0.136  0.8526  0.6610  0.3485
20487SOL    HW162655   4.801   8.071   0.047  0.0856 -0.9708  1.0077
20487SOL    HW262656   4.745   8.178   0.138  0.9499  0.7849 -0.4467
20488SOL     OW62657   5.981   3.426   8.050 -0.3265 -0.2705 -0.3600
20488SOL    HW162658   5.967   3.447   7.957 -2.5175 -0.0833 -0.0328
20488SOL    HW262659   5.935   3.495   8.097 -1.1304 -1.5768  0.8266
20489SOL     OW62660   2.806   6.566   1.695 -0.1102  0.2136 -0.0387
20489SOL    HW162661   2.879   6.504   1.696  1.3111  1.7546  2.4527
20489SOL    HW262662   2.728   6.512   1.684  1.2997 -1.5609 -2.0566
20490SOL     OW62663   4.831   3.912   7.499  0.2583 -0.4792  0.5501
20490SOL    HW162664   4.820   3.843   7.564 -0.6016 -0.2184  0.6821
20490SOL    HW262665   4.744   3.947   7.485  0.6230  0.3109  0.1780
20491SOL     OW62666   2.112   2.947   2.094 -0.4973 -0.0464  0.5752
20491SOL    HW162667   2.020   2.944   2.070 -0.3506 -0.2300  0.0269
20491SOL    HW262668   2.112   2.977   2.185 -0.9722  2.7825 -0.2723
20492SOL     OW62669   4.912   0.252   5.664  0.1624  0.1708  0.2118
20492SOL    HW162670   4.825   0.284   5.642  0.6065  0.4493 -1.2350
20492SOL    HW262671   4.940   0.202   5.588  1.3126  0.1802  0.5940
20493SOL     OW62672   6.353   3.803   6.246  0.1536  0.3113  0.4339
20493SOL    HW162673   6.302   3.763   6.315 -0.2295  1.2144  0.6933
20493SOL    HW262674   6.442   3.808   6.281  0.2937 -0.6806  0.2323
20494SOL     OW62675   3.035   8.033   0.010  0.6609 -0.3584  0.0923
20494SOL    HW162676   2.939   8.030   0.016  0.4079  0.3287 -2.6146
20494SOL    HW262677   3.062   7.943   0.028 -0.4060 -0.4489  1.4583
20495SOL     OW62678   6.777   3.867   6.137 -0.0950 -0.5327  0.2010
20495SOL    HW162679   6.723   3.904   6.207 -0.7004  0.2209 -0.6280
20495SOL    HW262680   6.778   3.935   6.070  0.0443 -1.4388 -0.7401
20496SOL     OW62681   2.670   2.813   4.618 -0.3176 -0.3325 -0.4386
20496SOL    HW162682   2.733   2.750   4.583  0.8374 -0.2006  1.3089
20496SOL    HW262683   2.635   2.856   4.540  0.3551 -1.7194 -1.5580
20497SOL     OW62684   4.241   6.023   3.904 -0.2508  0.0390  0.3969
20497SOL    HW162685   4.148   6.044   3.893 -0.1672  0.8503  1.1922
20497SOL    HW262686   4.268   6.072   3.981  0.5491 -1.1312  0.8899
20498SOL     OW62687   0.081   8.139   1.544  0.2495  0.8516  0.4179
20498SOL    HW162688   0.053   8.051   1.569  2.4953  0.0110  0.1396
20498SOL    HW262689   0.145   8.126   1.474  0.0754  2.7597 -0.1729
20499SOL     OW62690   7.955   7.725   8.228  0.2438  0.4440 -0.3054
20499SOL    HW162691   7.942   7.812   8.265  1.6933 -0.1807  1.8710
20499SOL    HW262692   7.899   7.723   8.151 -2.8643  1.9606  1.6944
20500SOL     OW62693   3.730   1.784   2.884  0.0629  0.1866  0.6143
20500SOL    HW162694   3.725   1.845   2.958 -1.5029  0.1580  0.5802
20500SOL    HW262695   3.657   1.723   2.899  1.2131 -1.3115  0.3234
20501SOL     OW62696   4.911   5.498   7.797  0.1195 -0.1225  0.2937
20501SOL    HW162697   4.910   5.545   7.881 -2.2239  2.1878 -0.9146
20501SOL    HW262698   4.978   5.542   7.746 -1.2510  1.1959 -0.4183
20502SOL     OW62699   4.193   6.596   0.315  0.0087  0.3286  0.4360
20502SOL    HW162700   4.266   6.658   0.313  0.3901 -0.1076 -1.5318
20502SOL    HW262701   4.234   6.510   0.300 -0.6398 -0.2862  1.9504
20503SOL     OW62702   3.849   6.844   5.967  0.3280  0.5609 -0.8628
20503SOL    HW162703   3.863   6.842   6.062 -0.0117  1.0914 -0.7984
20503SOL    HW262704   3.757   6.823   5.956  0.4741  0.0381 -1.1080
20504SOL     OW62705   2.990   7.034   5.606 -0.2520 -0.2025 -0.0208
20504SOL    HW162706   2.973   7.035   5.512  0.1474 -1.3544 -0.1186
20504SOL    HW262707   3.082   7.009   5.614 -1.0042 -3.1119  0.7190
20505SOL     OW62708   5.160   2.316   3.489 -0.0473 -0.0786  0.4542
20505SOL    HW162709   5.122   2.234   3.521 -0.6115  0.4328  1.1078
20505SOL    HW262710   5.151   2.377   3.562 -1.5147  1.1673 -0.7127
20506SOL     OW62711   3.047   1.704   6.218  0.0465 -0.3626  0.4875
20506SOL    HW162712   3.035   1.661   6.303  0.9308  1.1624  1.4302
20506SOL    HW262713   3.142   1.703   6.204 -0.0675 -0.3240 -0.3519
20507SOL     OW62714   0.058   7.065   7.722 -0.2704 -0.1283  0.0693
20507SOL    HW162715   0.092   7.040   7.807  1.6064  0.0308 -0.5939
20507SOL    HW262716   0.124   7.034   7.659  0.2578  2.9029 -1.0762
20508SOL     OW62717   0.147   1.328   0.656 -0.2503  0.1012 -0.6605
20508SOL    HW162718   0.149   1.380   0.736  0.1780  0.5638 -0.9701
20508SOL    HW262719   0.238   1.324   0.627 -0.4025 -0.0487 -1.1340
20509SOL     OW62720   7.983   7.772   0.633  0.4122  0.6204 -0.6182
20509SOL    HW162721   8.031   7.749   0.553  2.1668  0.8921  0.3143
20509SOL    HW262722   7.892   7.779   0.605  0.7762 -0.7381 -2.2929
20510SOL     OW62723   1.530   6.515   3.355 -0.0938  0.2127 -0.0694
20510SOL    HW162724   1.491   6.602   3.360 -1.0086 -0.1909  0.2050
20510SOL    HW262725   1.544   6.490   3.447  2.4558  1.0290 -0.1776
20511SOL     OW62726   7.681   1.948   1.929 -0.0547 -0.0824 -0.2101
20511SOL    HW162727   7.710   1.900   2.006 -0.6736 -1.1961 -0.6417
20511SOL    HW262728   7.661   2.036   1.961  0.1855 -0.3851  0.7975
20512SOL     OW62729   0.610   0.872   6.097  0.0217  0.4218  0.0021
20512SOL    HW162730   0.519   0.901   6.101  0.3131  1.2377  2.4755
20512SOL    HW262731   0.608   0.791   6.046 -1.6760  1.7408 -2.1726
20513SOL     OW62732   0.730   7.744   7.263  0.6093 -0.1595  0.2110
20513SOL    HW162733   0.665   7.709   7.202  1.0565 -0.3415 -0.1736
20513SOL    HW262734   0.730   7.838   7.247 -1.5992  0.2732  2.2235
20514SOL     OW62735   0.032   7.653   5.889 -0.2470  0.8126 -0.0892
20514SOL    HW162736   0.073   7.579   5.933  0.5087  1.5941  0.5639
20514SOL    HW262737  -0.042   7.677   5.944  0.3050  1.3753  0.4171
20515SOL     OW62738   1.027   1.722   7.011 -0.4998 -0.5588 -0.2226
20515SOL    HW162739   1.083   1.797   6.989 -0.4246 -0.7464 -0.6863
20515SOL    HW262740   1.062   1.650   6.958 -0.6412 -0.8942  0.1400
20516SOL     OW62741   7.331   1.992   1.528  0.2591 -0.4230  0.1979
20516SOL    HW162742   7.317   1.901   1.556  0.0835 -0.5412 -0.2686
20516SOL    HW262743   7.411   2.019   1.573  1.1075 -1.2764 -0.7572
20517SOL     OW62744   7.208   6.902   3.523  0.2459  0.6558 -0.2783
20517SOL    HW162745   7.245   6.850   3.594 -1.5749  0.5727  0.6831
20517SOL    HW262746   7.263   6.883   3.447  0.5269 -1.5014  0.4126
20518SOL     OW62747   1.421   4.635   7.599  0.2734  0.1007 -0.2263
20518SOL    HW162748   1.443   4.667   7.687 -0.9829  1.6604 -0.4298
20518SOL    HW262749   1.335   4.671   7.582 -0.9417 -2.8508 -0.8655
20519SOL     OW62750   1.147   7.653   1.029  0.1810 -0.2728 -0.0951
20519SOL    HW162751   1.052   7.638   1.028 -0.0691  1.1443 -0.4270
20519SOL    HW262752   1.175   7.631   0.940  0.3849 -1.8135  0.3222
20520SOL     OW62753   8.015   3.855   6.312 -0.1778  0.1724  0.1311
20520SOL    HW162754   8.099   3.877   6.272 -0.4097 -0.1732 -0.5644
20520SOL    HW262755   7.955   3.846   6.238 -0.8074  0.3177  0.6155
20521SOL     OW62756   5.388   4.839   3.706 -0.1727 -0.3064 -0.1795
20521SOL    HW162757   5.366   4.777   3.637  0.1097 -1.0969  0.4198
20521SOL    HW262758   5.440   4.788   3.769  1.6792  0.9996 -0.5638
20522SOL     OW62759   2.952   2.628   7.342  0.4733  0.0489 -0.0079
20522SOL    HW162760   2.882   2.620   7.407  2.1759 -0.3178  1.8750
20522SOL    HW262761   2.910   2.610   7.259 -1.3456 -1.8605  1.2311
20523SOL     OW62762   4.861   7.928   5.914  0.1053 -0.2841 -0.1222
20523SOL    HW162763   4.862   8.018   5.883 -0.9600  0.1730  1.0810
20523SOL    HW262764   4.863   7.936   6.010  0.3628 -1.5484 -0.0053
20524SOL     OW62765   4.020   8.091   5.306 -0.2288  0.1152 -0.2832
20524SOL    HW162766   4.095   8.145   5.331 -1.0570  0.7617  0.9022
20524SOL    HW262767   3.945   8.151   5.309 -1.2233 -1.1139  1.3686
20525SOL     OW62768   8.201   6.053   5.993 -0.6360 -0.2898  0.3370
20525SOL    HW162769   8.295   6.042   5.979 -0.4444  1.3939  0.1171
20525SOL    HW262770   8.168   6.084   5.909 -0.9702  1.3621  1.0332
20526SOL     OW62771   3.444   1.601   2.740  0.2945  0.1424 -0.1401
20526SOL    HW162772   3.357   1.631   2.712  0.1993 -0.5759 -0.6337
20526SOL    HW262773   3.495   1.599   2.659 -0.2716 -2.9601 -0.5377
20527SOL     OW62774   3.761   4.873   7.116  0.0957  0.4599  0.4730
20527SOL    HW162775   3.812   4.796   7.088 -2.1436 -1.4554  1.2896
20527SOL    HW262776   3.762   4.869   7.211 -2.4880 -0.3921  0.5337
20528SOL     OW62777   3.153   6.772   5.898  0.1316 -0.2724  0.3249
20528SOL    HW162778   3.232   6.725   5.923  0.5539 -0.1876 -0.7754
20528SOL    HW262779   3.084   6.705   5.901  0.1793 -0.2865  1.5360
20529SOL     OW62780   3.120   2.587   8.223 -0.1055  0.2401 -0.0632
20529SOL    HW162781   3.044   2.557   8.272  0.5264  0.1653  0.8813
20529SOL    HW262782   3.129   2.679   8.247 -0.7407  0.6546 -1.2929
20530SOL     OW62783   5.741   5.604   7.903  0.2488  0.2336  0.0031
20530SOL    HW162784   5.745   5.548   7.825  2.0116  1.1187 -0.6035
20530SOL    HW262785   5.787   5.684   7.877 -0.3811  1.1259  1.5168
20531SOL     OW62786   7.257   1.736   1.628  0.2291  0.3882 -0.3588
20531SOL    HW162787   7.278   1.738   1.722  0.6146 -1.3860 -0.3848
20531SOL    HW262788   7.264   1.644   1.603 -0.7347  0.7055 -1.9550
20532SOL     OW62789   3.388   0.323   7.159 -0.5194 -0.0658  0.4850
20532SOL    HW162790   3.461   0.363   7.205  1.9407 -1.7272 -1.6260
20532SOL    HW262791   3.376   0.238   7.202 -0.8066 -0.0417  0.4553
20533SOL     OW62792   4.238   4.664   8.212 -0.8275 -0.8252  0.1355
20533SOL    HW162793   4.287   4.681   8.292 -0.8687 -3.1085  0.7312
20533SOL    HW262794   4.198   4.748   8.190  1.2080  0.4810  1.0767
20534SOL     OW62795   1.180   4.464   4.306  0.3738  0.5367  0.2464
20534SOL    HW162796   1.086   4.464   4.326 -0.0673  1.2175 -1.6199
20534SOL    HW262797   1.206   4.372   4.313 -1.1152 -0.1215 -1.9815
20535SOL     OW62798   5.654   4.333   6.256 -0.1104 -0.2327  0.2762
20535SOL    HW162799   5.741   4.360   6.285 -0.1656 -2.0318  2.3196
20535SOL    HW262800   5.667   4.305   6.165  1.1760  0.6509  0.1595
20536SOL     OW62801   7.054   2.662   1.400 -0.2406  0.7045 -0.0625
20536SOL    HW162802   7.145   2.679   1.422 -0.0487  0.7621 -0.8841
20536SOL    HW262803   7.004   2.714   1.462  0.2944  1.3611 -0.1755
20537SOL     OW62804   4.067   2.012   3.642 -0.3117  0.0125  0.1041
20537SOL    HW162805   4.008   2.083   3.665 -0.7893 -0.2625 -0.2596
20537SOL    HW262806   4.036   1.937   3.693  0.1434  0.0413  0.4296
20538SOL     OW62807   3.637   3.323   1.630 -0.0760 -0.4460  0.1080
20538SOL    HW162808   3.720   3.347   1.587  0.0590 -1.7584 -0.4079
20538SOL    HW262809   3.576   3.393   1.606  0.7320  0.2564  0.0545
20539SOL     OW62810   2.441   0.366   3.677  0.3497 -0.5898  0.0890
20539SOL    HW162811   2.468   0.297   3.616 -0.3788 -1.7462  1.0095
20539SOL    HW262812   2.347   0.352   3.688  0.6153 -1.1621  2.2874
20540SOL     OW62813   1.025   6.835   5.098  0.0630 -0.6488  0.4565
20540SOL    HW162814   1.092   6.782   5.140  0.4039 -0.2911  0.3715
20540SOL    HW262815   0.954   6.773   5.078  0.2420 -0.9727  0.8089
20541SOL     OW62816   2.297   4.526   3.144 -0.3355  0.3857  0.1825
20541SOL    HW162817   2.379   4.574   3.140 -0.3080  0.3967  0.7447
20541SOL    HW262818   2.273   4.510   3.053  0.4833  0.0445  0.0256
20542SOL     OW62819   6.593   6.824   3.981  0.6231 -0.4755 -0.5294
20542SOL    HW162820   6.572   6.902   3.928  0.5935 -0.1750 -0.0766
20542SOL    HW262821   6.685   6.835   4.003  0.6581 -0.6454 -0.5906
20543SOL     OW62822   1.204   4.619   0.421 -0.5056 -0.8439 -0.0629
20543SOL    HW162823   1.211   4.577   0.506  1.2548 -0.5877 -0.0386
20543SOL    HW262824   1.192   4.712   0.440 -1.5094 -0.9547 -0.1124
20544SOL     OW62825   3.357   4.405   6.118 -0.0885 -0.3045  0.3648
20544SOL    HW162826   3.359   4.310   6.110 -0.7468 -0.3530  0.7574
20544SOL    HW262827   3.369   4.422   6.212  0.6190  0.0248  0.2245
20545SOL     OW62828   4.812   8.468   2.283  0.2593  0.3861 -0.2026
20545SOL    HW162829   4.880   8.468   2.351 -1.8152 -0.8201  2.0519
20545SOL    HW262830   4.816   8.380   2.246  1.4146  1.0555 -1.7716
20546SOL     OW62831   1.713   4.587   6.212  0.3479 -0.1921  0.4663
20546SOL    HW162832   1.767   4.509   6.206  0.7240  0.1593 -1.0447
20546SOL    HW262833   1.681   4.601   6.123 -1.4830  0.1480  1.1302
20547SOL     OW62834   7.268   3.996   7.707  0.2163 -0.2657 -0.3304
20547SOL    HW162835   7.305   4.081   7.683 -0.6810  0.0902 -0.4922
20547SOL    HW262836   7.312   3.973   7.789  1.0626 -0.0360 -0.7149
20548SOL     OW62837   2.747   5.267   8.234  0.2158  0.0074 -0.4001
20548SOL    HW162838   2.706   5.184   8.260  0.5224  0.2539  0.9137
20548SOL    HW262839   2.784   5.249   8.148 -0.2661 -1.0322 -0.4096
20549SOL     OW62840   0.399   1.404   2.932 -0.0069  0.4350 -0.3481
20549SOL    HW162841   0.362   1.356   2.858  0.8878  0.2607 -0.6936
20549SOL    HW262842   0.485   1.433   2.902  0.5737 -0.0330  0.7683
20550SOL     OW62843   7.544   1.286   3.376  0.0908 -0.2363  0.6549
20550SOL    HW162844   7.582   1.373   3.377 -0.4447  0.0302 -0.4195
20550SOL    HW262845   7.602   1.235   3.318 -0.3717 -0.2077  0.1554
20551SOL     OW62846   3.499   4.906   4.759 -0.6201  0.1696 -0.1748
20551SOL    HW162847   3.490   4.959   4.679  0.0454  0.3862 -0.1124
20551SOL    HW262848   3.560   4.956   4.814 -0.2084 -0.5213  0.0031
20552SOL     OW62849   6.893   6.681   0.198  0.6633 -0.1868  0.2477
20552SOL    HW162850   6.962   6.615   0.205  0.6198 -0.2278  0.2850
20552SOL    HW262851   6.911   6.725   0.114  0.6441 -0.2998  0.1845
20553SOL     OW62852   1.449   6.471   8.267 -0.2634 -0.4786  0.0443
20553SOL    HW162853   1.366   6.507   8.235 -0.9750  0.5115  2.7322
20553SOL    HW262854   1.427   6.382   8.294 -0.1546 -0.5951 -0.2394
20554SOL     OW62855   5.099   1.950   6.308  0.2216  0.2705 -0.0887
20554SOL    HW162856   5.021   1.915   6.265  0.1834 -0.1367  0.3007
20554SOL    HW262857   5.070   1.973   6.397  0.3909  0.7280 -0.1478
20555SOL     OW62858   5.915   0.145   4.323 -0.0497  0.2266  0.3031
20555SOL    HW162859   5.876   0.121   4.239 -1.1872  0.3059  0.7920
20555SOL    HW262860   5.935   0.238   4.314 -1.4838  0.5966  0.5721
20556SOL     OW62861   6.405   0.217   5.379  0.7926 -0.1031 -0.1135
20556SOL    HW162862   6.451   0.245   5.300 -0.1406  0.5093 -0.4580
20556SOL    HW262863   6.438   0.274   5.448  0.4850  0.4201 -0.3857
20557SOL     OW62864   5.328   4.316   6.889 -0.4969  0.3865 -0.1119
20557SOL    HW162865   5.314   4.274   6.805 -1.6165  1.0747 -0.2905
20557SOL    HW262866   5.252   4.374   6.900 -0.3723  0.3193  1.3548
20558SOL     OW62867   7.686   1.180   0.871  0.5695  0.1027  0.4971
20558SOL    HW162868   7.639   1.259   0.897  0.0681  0.6884 -1.8938
20558SOL    HW262869   7.630   1.140   0.804  2.0525 -0.8152 -0.2592
20559SOL     OW62870   4.676   6.999   2.215 -0.3790 -0.2954 -0.0763
20559SOL    HW162871   4.698   7.041   2.298  0.3562 -0.4015 -0.2041
20559SOL    HW262872   4.759   6.961   2.185 -0.8213 -0.9990 -0.4373
20560SOL     OW62873   1.599   4.588   4.255 -0.3544 -0.2297  0.0531
20560SOL    HW162874   1.677   4.641   4.243  0.4748 -1.6569 -1.2411
20560SOL    HW262875   1.573   4.562   4.167  0.3390 -3.3622  0.6207
20561SOL     OW62876   0.176   6.738   1.709  0.2571 -0.7329 -0.1334
20561SOL    HW162877   0.255   6.751   1.762  0.5308 -0.2159 -0.6568
20561SOL    HW262878   0.127   6.670   1.755 -0.2098  0.6943  1.6014
20562SOL     OW62879   8.482   7.210   0.387  0.5954 -0.3440 -0.0522
20562SOL    HW162880   8.483   7.303   0.409  1.8043 -0.1156 -0.9696
20562SOL    HW262881   8.554   7.172   0.438  1.1924 -0.4455 -0.9471
20563SOL     OW62882   2.148   2.883   4.868 -0.0002 -0.3278  0.5965
20563SOL    HW162883   2.096   2.820   4.817  0.6411  0.1674 -0.6948
20563SOL    HW262884   2.089   2.909   4.939 -0.1926 -2.5806  1.3467
20564SOL     OW62885   4.078   0.450   7.355 -0.3362  0.4163 -0.5329
20564SOL    HW162886   4.087   0.375   7.413 -0.8426  1.1409  0.5083
20564SOL    HW262887   4.168   0.480   7.342 -0.0271 -0.9466 -1.7787
20565SOL     OW62888   2.480   2.641   8.299 -0.3944  0.0017  0.1645
20565SOL    HW162889   2.441   2.708   8.354  2.1025  1.0883  0.7642
20565SOL    HW262890   2.449   2.661   8.210 -0.7099  1.1488  0.5194
20566SOL     OW62891   2.782   0.735   3.765  0.2746  0.8644 -0.3873
20566SOL    HW162892   2.742   0.755   3.681 -1.7966  1.6988  0.7343
20566SOL    HW262893   2.740   0.654   3.793  0.5128  0.9081  0.1094
20567SOL     OW62894   3.190   0.508   6.139 -0.0295 -0.4070 -0.1522
20567SOL    HW162895   3.267   0.539   6.090 -0.5803  0.5299 -0.4613
20567SOL    HW262896   3.202   0.543   6.227 -0.2356 -0.0032 -0.2796
20568SOL     OW62897   7.795   0.844   1.616 -0.4136  0.3752  1.0744
20568SOL    HW162898   7.711   0.861   1.575  0.2340 -1.8404 -1.5143
20568SOL    HW262899   7.778   0.773   1.678 -0.4958 -0.0758  0.5476
20569SOL     OW62900   1.527   3.104   1.987 -0.0345 -0.4207 -0.3493
20569SOL    HW162901   1.556   3.014   1.971 -0.2055 -0.7054  0.8447
20569SOL    HW262902   1.441   3.094   2.029  0.3191  0.2537  0.5817
20570SOL     OW62903   5.550   2.887   8.122 -0.3782 -0.0515  0.5740
20570SOL    HW162904   5.526   2.868   8.213 -0.8538  1.4570  0.7968
20570SOL    HW262905   5.483   2.948   8.092  0.6277  0.6484 -0.3079
20571SOL     OW62906   7.212   3.434   4.356 -0.1464 -0.1345 -0.0830
20571SOL    HW162907   7.211   3.507   4.418  3.4246 -0.3071  0.4070
20571SOL    HW262908   7.264   3.466   4.282  0.7163 -1.8452 -0.2768
20572SOL     OW62909   6.734   5.600   1.426  0.0772 -0.1250  0.3474
20572SOL    HW162910   6.757   5.687   1.394 -0.3224  0.1636  0.8390
20572SOL    HW262911   6.648   5.583   1.388 -0.7246  0.5126  1.7998
20573SOL     OW62912   7.869   3.173   2.627  0.0529  0.2526  0.4611
20573SOL    HW162913   7.954   3.216   2.627 -0.0038  0.4624 -1.5230
20573SOL    HW262914   7.808   3.241   2.600 -0.6982 -0.0147  1.4305
20574SOL     OW62915   6.738   3.544   7.584 -0.3409 -0.2020 -0.1159
20574SOL    HW162916   6.701   3.633   7.585 -2.0762 -0.8690 -0.7679
20574SOL    HW262917   6.788   3.541   7.503  1.5873  0.8378  0.9607
20575SOL     OW62918   3.762   3.263   1.362  0.5179  0.4556 -0.6392
20575SOL    HW162919   3.852   3.261   1.395  0.3938  1.1798 -0.2441
20575SOL    HW262920   3.731   3.173   1.375  1.3155  0.0834 -1.1828
20576SOL     OW62921   7.779   5.735   1.857 -0.2741  0.2298 -0.0176
20576SOL    HW162922   7.819   5.667   1.912  0.9097  1.0128  0.1370
20576SOL    HW262923   7.847   5.756   1.793 -1.3751 -0.1674 -1.3796
20577SOL     OW62924   8.016   7.107   1.750 -0.5828  0.8798  0.1723
20577SOL    HW162925   7.991   7.115   1.842 -1.3314 -2.3538  0.3464
20577SOL    HW262926   7.999   7.194   1.713  1.3708  2.8218  3.3787
20578SOL     OW62927   4.108   5.678   6.345 -0.0123 -0.2085 -0.3355
20578SOL    HW162928   4.160   5.757   6.362 -0.1758 -0.2048  0.1686
20578SOL    HW262929   4.040   5.707   6.284  0.3074 -0.1071 -0.6428
20579SOL     OW62930   5.960   0.833   5.679  0.2092  0.2550  0.4728
20579SOL    HW162931   6.043   0.815   5.723  0.8389  1.3525 -0.2248
20579SOL    HW262932   5.913   0.892   5.738 -1.0178 -1.9779  1.8480
20580SOL     OW62933   6.234   5.033   7.197  0.6437 -1.0232  0.0946
20580SOL    HW162934   6.249   5.116   7.243 -0.4662  0.3300 -1.8192
20580SOL    HW262935   6.250   4.966   7.262 -1.8729  0.7727  2.8028
20581SOL     OW62936   0.921   3.701   5.318  0.4091 -0.2579 -0.3461
20581SOL    HW162937   0.847   3.738   5.269  0.2486 -1.2018 -0.8400
20581SOL    HW262938   0.978   3.775   5.335 -0.8672  0.5815  0.4472
20582SOL     OW62939   5.801   8.263   4.309  0.0847 -0.3424  0.0747
20582SOL    HW162940   5.889   8.272   4.345  0.8531 -4.7579 -0.1721
20582SOL    HW262941   5.814   8.257   4.214 -0.5423 -0.4514 -0.0142
20583SOL     OW62942   3.211   5.678   6.476  0.1557  0.3027  0.1150
20583SOL    HW162943   3.286   5.722   6.516  1.1441 -1.1639 -0.0379
20583SOL    HW262944   3.135   5.710   6.526  0.8948  1.6062  0.4500
20584SOL     OW62945   3.237   7.820   6.190  0.1061 -0.1431  0.6866
20584SOL    HW162946   3.153   7.865   6.186  0.1686  0.0854  1.6592
20584SOL    HW262947   3.236   7.774   6.274  1.5317  1.0461  1.4081
20585SOL     OW62948   7.541   7.850   0.316  0.1700  0.0217  0.0481
20585SOL    HW162949   7.599   7.779   0.287 -1.6839 -1.5381 -0.0302
20585SOL    HW262950   7.496   7.814   0.392 -1.5571  0.7075 -0.6131
20586SOL     OW62951   7.300   0.942   3.123  0.2914 -0.1481 -0.2129
20586SOL    HW162952   7.226   0.952   3.182 -0.1299 -1.6430 -0.4410
20586SOL    HW262953   7.377   0.953   3.178 -0.1057 -0.0340  0.3208
20587SOL     OW62954   0.125   7.142   3.122  0.2068 -0.5812  0.0164
20587SOL    HW162955   0.169   7.125   3.039 -0.5029 -0.5303 -0.3820
20587SOL    HW262956   0.072   7.064   3.139  0.4975 -0.6743  0.5238
20588SOL     OW62957   8.256   6.982   7.032 -0.0135 -0.0776 -0.3915
20588SOL    HW162958   8.350   6.983   7.013  0.0949 -2.1031 -0.1862
20588SOL    HW262959   8.215   7.010   6.950  0.7324 -0.6891 -0.9995
20589SOL     OW62960   3.474   2.888   3.453 -0.0490 -0.0948 -0.1780
20589SOL    HW162961   3.435   2.964   3.409 -0.0121  0.1707  0.2482
20589SOL    HW262962   3.566   2.890   3.428 -0.0702 -0.0619 -0.2530
20590SOL     OW62963   1.744   4.796   2.975 -0.1679  0.0753  0.3486
20590SOL    HW162964   1.802   4.752   2.914 -0.8505  0.1036 -0.3450
20590SOL    HW262965   1.689   4.726   3.011  0.2845  0.0464  1.0060
20591SOL     OW62966   0.101   2.501   7.785  0.3254  0.1874  0.3613
20591SOL    HW162967   0.135   2.541   7.865  1.4979  0.2818 -0.1637
20591SOL    HW262968   0.017   2.545   7.770 -0.4026 -0.5493  2.0737
20592SOL     OW62969   5.919   4.273   1.804 -0.5204  0.1817 -0.6139
20592SOL    HW162970   5.932   4.312   1.891  0.8454  1.2620 -1.2686
20592SOL    HW262971   5.856   4.331   1.762  0.2761  0.7844 -1.0062
20593SOL     OW62972   3.535   0.721   7.251  0.2913 -0.4993 -0.6888
20593SOL    HW162973   3.537   0.637   7.296  0.4217  0.3938  1.0667
20593SOL    HW262974   3.445   0.730   7.220 -0.1529 -0.6040  0.5197
20594SOL     OW62975   0.471   5.995   2.674 -0.0561 -0.5287 -0.3669
20594SOL    HW162976   0.470   5.992   2.578 -0.8586 -0.4184 -0.3709
20594SOL    HW262977   0.379   5.983   2.698 -0.0615  0.8080  0.3495
20595SOL     OW62978   4.798   3.786   3.802 -0.0036  0.0826  0.1986
20595SOL    HW162979   4.729   3.805   3.866  0.8583  1.0796  0.8491
20595SOL    HW262980   4.802   3.690   3.799 -1.8694 -0.0136 -0.3579
20596SOL     OW62981   7.492   6.780   8.076  0.4817 -0.5760  0.2457
20596SOL    HW162982   7.439   6.858   8.064 -0.4948 -0.6664  3.0790
20596SOL    HW262983   7.455   6.716   8.015 -0.9606  0.1732  0.2931
20597SOL     OW62984   6.641   7.179   4.412  0.7229  0.7181 -0.0437
20597SOL    HW162985   6.619   7.087   4.421 -0.5013  1.0308  0.4273
20597SOL    HW262986   6.736   7.182   4.413  0.7870 -0.6060 -0.8173
20598SOL     OW62987   1.701   6.917   0.068  0.0116  0.0497  0.0919
20598SOL    HW162988   1.772   6.874   0.021  0.0550  0.7273 -0.4796
20598SOL    HW262989   1.741   6.996   0.105  0.2023 -0.8903  2.0414
20599SOL     OW62990   6.137   6.161   5.014 -0.2177  0.4363  0.1380
20599SOL    HW162991   6.199   6.089   5.028  2.9874  2.6648 -1.3979
20599SOL    HW262992   6.121   6.160   4.919 -0.6572  1.3426  0.1928
20600SOL     OW62993   4.459   4.378   5.014  0.2605 -0.6025 -0.4252
20600SOL    HW162994   4.511   4.313   4.967  1.1123  0.2046 -0.6255
20600SOL    HW262995   4.501   4.461   4.994 -0.5088 -0.0400  0.2395
20601SOL     OW62996   5.014   7.763   0.571 -0.4615 -0.1878  0.5743
20601SOL    HW162997   5.105   7.789   0.585  0.6523  1.1368 -5.8570
20601SOL    HW262998   4.968   7.845   0.551 -2.5687 -1.0864  1.3642
20602SOL     OW62999   1.597   3.703   4.498  0.3098  0.0048  0.0659
20602SOL    HW163000   1.690   3.724   4.507  0.8500 -0.6887 -2.8299
20602SOL    HW263001   1.553   3.788   4.501  1.3464  0.6160 -1.0153
20603SOL     OW63002   6.466   6.796   7.556  0.1173  0.2867 -0.3392
20603SOL    HW163003   6.514   6.800   7.473  0.6096 -1.2333 -0.1537
20603SOL    HW263004   6.388   6.850   7.541  2.1992  3.5668 -0.3750
20604SOL     OW63005   0.191   2.701   7.514  0.4691  0.1091  0.4434
20604SOL    HW163006   0.122   2.766   7.528  1.9447  1.7481  0.4071
20604SOL    HW263007   0.174   2.634   7.580 -0.9875  0.5974  0.6073
20605SOL     OW63008   7.963   5.593   2.475  0.0639 -0.0352  0.0922
20605SOL    HW163009   7.892   5.539   2.438  2.4484 -1.6896 -2.4635
20605SOL    HW263010   7.918   5.654   2.533 -3.2911 -1.9232 -0.2380
20606SOL     OW63011   5.063   0.974   3.380  0.4339 -0.3363  0.2168
20606SOL    HW163012   5.068   1.069   3.371  1.0532 -0.3869 -0.0096
20606SOL    HW263013   5.093   0.956   3.469  1.3411 -0.3928 -0.0874
20607SOL     OW63014   3.855   0.729   0.371  0.1379 -0.0264 -0.5885
20607SOL    HW163015   3.866   0.670   0.296  0.4331 -0.6017 -0.1047
20607SOL    HW263016   3.785   0.788   0.344  2.6324  2.1968 -2.8098
20608SOL     OW63017   2.279   3.753   1.430 -0.2215  0.6814 -0.2377
20608SOL    HW163018   2.270   3.773   1.523  1.3984  0.2170  0.0432
20608SOL    HW263019   2.280   3.839   1.387 -1.5638  0.8836  0.0784
20609SOL     OW63020   8.501   7.671   8.081  0.0741  0.1054  0.3607
20609SOL    HW163021   8.507   7.759   8.043  0.0125 -0.0998 -0.1423
20609SOL    HW263022   8.574   7.665   8.142 -0.9240  1.1162  1.6978
20610SOL     OW63023   2.017   8.063   8.565  0.2437 -0.3315 -0.6744
20610SOL    HW163024   1.925   8.071   8.592  0.5265  0.8599  0.0270
20610SOL    HW263025   2.016   8.080   8.471 -0.3164 -0.8807 -0.7717
20611SOL     OW63026   4.142   0.525   0.412 -0.0351  0.1764  0.6052
20611SOL    HW163027   4.177   0.438   0.432 -1.7342 -0.6099  0.3530
20611SOL    HW263028   4.161   0.577   0.490  1.9081 -0.1132  0.3521
20612SOL     OW63029   2.950   5.375   0.626  0.3495 -0.3572 -0.0026
20612SOL    HW163030   2.924   5.285   0.646 -0.5889 -0.4310 -1.4410
20612SOL    HW263031   3.037   5.367   0.587 -0.2724 -0.7882 -1.3373
20613SOL     OW63032   5.403   4.774   7.891  0.7223  0.2134 -0.3611
20613SOL    HW163033   5.341   4.769   7.818 -1.1344 -0.2244  1.1553
20613SOL    HW263034   5.351   4.808   7.964  2.1805 -0.5469  1.0897
20614SOL     OW63035   7.011   0.162   5.672 -0.3294  0.2318 -0.4506
20614SOL    HW163036   6.924   0.202   5.679 -0.3582  0.7525 -2.8228
20614SOL    HW263037   7.000   0.091   5.609  0.8084 -0.1770 -0.2091
20615SOL     OW63038   5.036   3.729   4.998  0.2559 -0.3297  0.4736
20615SOL    HW163039   5.035   3.638   4.968  2.0751  0.0855 -1.0122
20615SOL    HW263040   5.125   3.743   5.031  0.0031  0.9015  0.6859
20616SOL     OW63041   6.297   6.817   1.606 -0.2506  0.7700  0.1770
20616SOL    HW163042   6.327   6.907   1.619 -0.2887  0.9174 -0.6727
20616SOL    HW263043   6.286   6.809   1.511  1.0898 -0.5531  0.0849
20617SOL     OW63044   0.169   1.054   2.103 -0.1751  0.5779 -0.1033
20617SOL    HW163045   0.141   0.972   2.143 -4.4007  2.1554  0.6832
20617SOL    HW263046   0.230   1.092   2.167  1.6939 -1.7012 -0.3924
20618SOL     OW63047   5.609   5.235   0.137 -0.5627 -0.2956 -0.2894
20618SOL    HW163048   5.646   5.250   0.224  1.2633 -0.7119 -0.9394
20618SOL    HW263049   5.572   5.320   0.112  1.1328  0.5424 -0.0951
20619SOL     OW63050   8.311   3.340   6.335 -0.0096  0.0913  0.5023
20619SOL    HW163051   8.276   3.428   6.322 -1.2414 -0.2148  1.5337
20619SOL    HW263052   8.240   3.292   6.377  1.6104 -0.5973  2.6490
20620SOL     OW63053   8.093   6.547   1.451 -0.3108  0.0075 -0.1815
20620SOL    HW163054   8.166   6.485   1.451  0.6877  1.1184 -1.2605
20620SOL    HW263055   8.123   6.619   1.505 -0.5117  0.5713 -0.8011
20621SOL     OW63056   4.127   2.593   2.993 -0.0443 -0.1016  0.3392
20621SOL    HW163057   4.086   2.632   3.071  2.2514  0.8041  1.1556
20621SOL    HW263058   4.160   2.508   3.023  0.9004  0.2758  0.4016
20622SOL     OW63059   1.807   2.415   0.162 -0.8008  0.6331  0.5689
20622SOL    HW163060   1.760   2.447   0.085 -1.1701 -1.0943  0.0433
20622SOL    HW263061   1.752   2.345   0.196  1.6250 -1.9980 -0.4822
20623SOL     OW63062   1.125   2.874   2.791 -0.1987 -0.1563 -0.2907
20623SOL    HW163063   1.150   2.961   2.820  0.3393  0.1859 -1.6961
20623SOL    HW263064   1.153   2.816   2.862  2.2790  0.4924 -0.6326
20624SOL     OW63065   5.424   0.156   3.599 -0.5914 -0.2191  0.2664
20624SOL    HW163066   5.339   0.199   3.606 -1.0827 -1.0877 -0.1915
20624SOL    HW263067   5.440   0.151   3.504  0.2582  0.4769  0.3627
20625SOL     OW63068   7.185   1.116   7.134 -0.4098  0.2098 -0.2202
20625SOL    HW163069   7.175   1.191   7.194  1.1268  0.4374 -0.2112
20625SOL    HW263070   7.271   1.080   7.154 -0.9207 -1.2878 -0.5674
20626SOL     OW63071   2.326   0.658   2.816  0.0763  0.7024  0.0943
20626SOL    HW163072   2.292   0.614   2.738  0.3265  0.3832  0.1623
20626SOL    HW263073   2.297   0.603   2.889  2.6531 -0.9211  0.0377
20627SOL     OW63074   2.024   6.826   3.047  0.1753  0.1663  0.2345
20627SOL    HW163075   1.997   6.736   3.064 -0.3249 -0.0996 -1.7533
20627SOL    HW263076   1.952   6.864   2.996  1.4415  0.9299 -1.0611
20628SOL     OW63077   2.352   3.122   0.868  0.4429 -0.2288 -0.4213
20628SOL    HW163078   2.373   3.126   0.775  0.2440  0.3036 -0.4483
20628SOL    HW263079   2.257   3.125   0.871  0.4401 -0.4994 -0.2099
20629SOL     OW63080   3.287   6.066   5.740 -0.4976 -0.0584 -1.1384
20629SOL    HW163081   3.314   6.154   5.711 -0.9314  1.7391  3.2071
20629SOL    HW263082   3.364   6.030   5.784 -1.2987 -0.4083  0.0222
20630SOL     OW63083   4.079   3.952   7.389 -0.6835  0.0191 -0.1042
20630SOL    HW163084   4.111   3.870   7.353  0.6606  0.5013 -0.0631
20630SOL    HW263085   4.107   4.019   7.327  1.0379  0.7771  1.3995
20631SOL     OW63086   6.484   8.105   4.169 -0.0812  0.1475  0.0129
20631SOL    HW163087   6.552   8.172   4.163 -0.4323  0.6155  0.9669
20631SOL    HW263088   6.517   8.044   4.234  1.2554 -1.8859 -2.3910
20632SOL     OW63089   2.031   4.308   3.041  0.4031 -0.6189 -0.3850
20632SOL    HW163090   2.083   4.365   2.984 -1.4550  2.5680  0.8238
20632SOL    HW263091   1.974   4.260   2.982  0.2834  0.6903 -1.3610
20633SOL     OW63092   5.236   5.224   6.157 -0.6908 -0.1500 -0.0891
20633SOL    HW163093   5.323   5.253   6.127 -0.8519 -0.0426 -0.4575
20633SOL    HW263094   5.175   5.269   6.099 -1.0927  1.2655  1.3435
20634SOL     OW63095   2.322   5.672   1.392  0.0932  0.9971 -0.0105
20634SOL    HW163096   2.388   5.669   1.461  1.2004  0.5096 -1.0425
20634SOL    HW263097   2.241   5.643   1.434  0.5676  1.4625  1.2477
20635SOL     OW63098   6.814   1.341   6.684  0.1972 -0.2512  0.8432
20635SOL    HW163099   6.820   1.257   6.729 -0.7983 -0.6293  0.2988
20635SOL    HW263100   6.721   1.364   6.686  0.3561  0.4881  0.3725
20636SOL     OW63101   5.188   0.535   8.256 -0.4375  0.0185 -0.6205
20636SOL    HW163102   5.189   0.500   8.346 -0.0829 -0.4034 -0.7828
20636SOL    HW263103   5.281   0.540   8.232 -0.4470  1.5043 -0.4531
20637SOL     OW63104   3.794   2.994   3.784  0.3865  0.8969  0.0845
20637SOL    HW163105   3.717   2.998   3.840  0.3706 -0.4866  0.2047
20637SOL    HW263106   3.846   2.922   3.820  1.3444  1.2902 -0.4755
20638SOL     OW63107   7.558   3.580   3.091 -0.0941 -0.2410 -0.0946
20638SOL    HW163108   7.641   3.587   3.138  0.5658 -1.6662 -1.0113
20638SOL    HW263109   7.493   3.614   3.153  1.0522  0.0739  0.9648
20639SOL     OW63110   0.451   1.378   2.403 -0.2815  0.4097 -0.2866
20639SOL    HW163111   0.522   1.386   2.467 -1.2036  1.4165  0.6560
20639SOL    HW263112   0.489   1.410   2.321  0.1189  1.7477  0.3941
20640SOL     OW63113   2.069   5.728   1.789  0.2361  0.3724 -0.0985
20640SOL    HW163114   2.023   5.699   1.710  1.6594 -0.5591 -0.6340
20640SOL    HW263115   2.045   5.665   1.856  0.9982 -0.3455 -0.4803
20641SOL     OW63116   6.814   2.900   6.978  0.5135  0.2125 -0.3287
20641SOL    HW163117   6.828   2.925   6.886 -0.1395 -0.5301 -0.6446
20641SOL    HW263118   6.746   2.833   6.974  0.8018 -0.1553  0.6652
20642SOL     OW63119   7.325   0.685   4.904  0.5327  0.3553 -0.0967
20642SOL    HW163120   7.278   0.739   4.840 -0.4536  1.3053  1.3863
20642SOL    HW263121   7.313   0.595   4.872  0.5949  0.8323 -1.5704
20643SOL     OW63122   2.686   7.854   1.220 -0.3354  0.1076  0.3594
20643SOL    HW163123   2.651   7.840   1.132  0.2194  2.5725 -0.3182
20643SOL    HW263124   2.704   7.948   1.225  2.1186 -0.3543  2.2024
20644SOL     OW63125   2.667   6.535   7.268 -0.1294 -0.3238  0.4205
20644SOL    HW163126   2.580   6.494   7.266  0.4646 -1.6665  0.7509
20644SOL    HW263127   2.676   6.567   7.358 -1.3257  2.2906 -0.2962
20645SOL     OW63128   4.209   5.740   0.782  0.1005  0.3736  0.2990
20645SOL    HW163129   4.137   5.770   0.838  0.7965 -0.2336  1.5559
20645SOL    HW263130   4.171   5.671   0.728 -1.0057  2.0576 -1.2016
20646SOL     OW63131   4.046   3.054   2.823  1.0987 -0.5702  0.1914
20646SOL    HW163132   4.005   2.987   2.769 -1.1809  1.1171 -0.3340
20646SOL    HW263133   4.063   3.126   2.762 -1.1648  1.2323  1.5277
20647SOL     OW63134   7.029   1.904   4.412 -0.4146 -0.3398 -0.1404
20647SOL    HW163135   6.960   1.860   4.363 -0.8436  0.9403 -0.7239
20647SOL    HW263136   6.982   1.955   4.479  0.0441 -0.3984  0.2328
20648SOL     OW63137   1.743   6.700   5.683 -0.1088  0.4695  0.0918
20648SOL    HW163138   1.789   6.673   5.762  0.9708  2.2804  0.1316
20648SOL    HW263139   1.666   6.746   5.716 -1.4772 -1.6442  0.0251
20649SOL     OW63140   3.795   0.667   3.805 -0.5646 -0.4322 -0.3345
20649SOL    HW163141   3.862   0.619   3.853 -0.8297 -1.2711 -0.7782
20649SOL    HW263142   3.721   0.606   3.799 -0.6023 -0.2915 -1.6360
20650SOL     OW63143   6.569   1.917   5.279 -0.1171 -0.5463 -0.6694
20650SOL    HW163144   6.553   2.006   5.249  2.0134  0.4770  0.9860
20650SOL    HW263145   6.599   1.870   5.201  1.6122  1.0322 -1.0226
20651SOL     OW63146   4.298   2.219   7.195  0.0361 -0.2647 -0.0286
20651SOL    HW163147   4.207   2.246   7.198  0.1038  0.1649 -1.2139
20651SOL    HW263148   4.306   2.171   7.113  0.3551 -2.3303  1.1551
20652SOL     OW63149   1.353   1.021   8.066 -0.6367  0.1647 -0.5187
20652SOL    HW163150   1.390   1.063   7.989 -0.8630 -0.0190 -0.7318
20652SOL    HW263151   1.271   0.983   8.035 -1.0270  0.6147 -0.0382
20653SOL     OW63152   8.407   6.532   6.621 -0.3573  0.0956 -0.1270
20653SOL    HW163153   8.454   6.609   6.655 -0.5697 -0.1618  0.7774
20653SOL    HW263154   8.467   6.459   6.638 -1.2217 -0.3023  1.4493
20654SOL     OW63155   3.176   3.716   8.258  0.2835 -0.4355 -0.0555
20654SOL    HW163156   3.138   3.635   8.292  0.7528 -0.9049 -0.6348
20654SOL    HW263157   3.229   3.689   8.183 -0.4043  0.5253 -0.9179
20655SOL     OW63158   7.249   4.721   4.996  0.0945 -0.6698 -0.4330
20655SOL    HW163159   7.226   4.739   4.905 -2.1106  0.0517  0.1915
20655SOL    HW263160   7.249   4.807   5.038  1.2175 -0.9758  0.2406
20656SOL     OW63161   2.425   2.878   4.091  0.0850  0.4023 -0.3338
20656SOL    HW163162   2.503   2.825   4.110  0.1014  0.1760 -1.0432
20656SOL    HW263163   2.399   2.853   4.003 -1.0381  0.1857  0.0508
20657SOL     OW63164   4.602   1.805   5.887 -0.1330 -0.6354 -0.2647
20657SOL    HW163165   4.582   1.856   5.966  1.2499 -0.4544 -0.0016
20657SOL    HW263166   4.554   1.850   5.817  1.3698  1.3384 -0.1161
20658SOL     OW63167   8.204   3.375   0.831 -0.6546 -0.1419  0.4094
20658SOL    HW163168   8.241   3.424   0.904  1.1654 -0.4805 -0.2461
20658SOL    HW263169   8.167   3.296   0.871 -1.0370  0.3956  1.1289
20659SOL     OW63170   6.659   2.614   0.917 -0.3865 -0.1237  0.9046
20659SOL    HW163171   6.595   2.576   0.856  1.3393 -1.6036 -0.0888
20659SOL    HW263172   6.661   2.552   0.990  0.9069 -0.8932  0.2565
20660SOL     OW63173   1.309   8.435   8.210  0.0105 -0.0207  0.1403
20660SOL    HW163174   1.374   8.426   8.279 -1.4234 -1.6414  1.3813
20660SOL    HW263175   1.259   8.354   8.214 -0.4809  0.0687 -2.4741
20661SOL     OW63176   7.817   8.465   3.897 -0.2854 -0.1834  0.1022
20661SOL    HW163177   7.868   8.546   3.898 -0.5411 -0.0204  0.0829
20661SOL    HW263178   7.744   8.482   3.957 -0.1358 -0.5305  0.3818
20662SOL     OW63179   0.953   0.631   3.393 -0.2997  0.1403  0.6199
20662SOL    HW163180   0.918   0.542   3.397  1.0508 -0.3654  2.5986
20662SOL    HW263181   1.043   0.620   3.362  0.0196  0.7596  1.3169
20663SOL     OW63182   5.744   5.121   1.366 -0.2956 -0.2015  0.3093
20663SOL    HW163183   5.798   5.055   1.410 -2.3677 -1.7128  0.7239
20663SOL    HW263184   5.663   5.123   1.417 -1.8117 -0.2025 -1.9918
20664SOL     OW63185   1.978   5.899   5.157 -0.1213  0.0955  0.0852
20664SOL    HW163186   2.028   5.873   5.079  0.0876 -0.1787  0.3062
20664SOL    HW263187   2.001   5.833   5.222 -1.1498 -0.3282  0.0431
20665NA      NA63188   2.336   5.749   1.189 -0.2460  0.1799 -0.2606
20666NA      NA63189   8.236   1.081   0.736  0.3009 -0.4509 -0.0473
20667NA      NA63190   6.515   6.902   7.945  0.2932 -0.3136  0.0253
20668NA      NA63191   1.591   4.744   0.649 -0.0736 -0.2003 -0.2425
20669NA      NA63192   7.623   8.330   1.569  0.2379 -0.4529 -0.1523
20670NA      NA63193   5.389   1.922   5.898  0.0107  0.1335 -0.1063
20671NA      NA63194   6.158   7.118   7.651  0.0479  0.2248 -0.0740
20672NA      NA63195   0.786   5.487   1.462 -0.0700  0.1273 -0.3079
20673NA      NA63196   7.680   1.076   4.048 -0.0597  0.1883 -0.0316
20674NA      NA63197   8.066   0.390   0.154 -0.3393  0.3281  0.0427
20675NA      NA63198   7.095   0.036   7.287 -0.4273  0.2587 -0.5972
20676NA      NA63199   5.403   7.607   7.386  0.3632 -0.0195 -0.4248
20677NA      NA63200   1.512   4.549   3.176  0.2064 -0.3827  0.2292
20678NA      NA63201   4.375   0.827   6.230  0.0224  0.4794 -0.2818
20679NA      NA63202   7.280   8.450   8.226 -0.6560  0.1739 -0.2869
20680NA      NA63203   7.380   8.152   8.391 -0.3966 -0.1845 -0.3191
20681NA      NA63204   7.382   7.968   1.282  0.2567 -0.4208  0.1926
20682NA      NA63205   6.829   8.539   6.671 -0.0655 -0.8264  0.2801
20683NA      NA63206   5.212   8.489   6.817 -0.0740 -0.4375 -0.0345
20684NA      NA63207   8.489   0.922   0.802  0.0931  0.0490  0.4162
20685NA      NA63208   0.461   2.842   3.248  0.2288  0.1162  0.1374
20686NA      NA63209   0.362   1.615   6.819  0.5412 -0.2777 -0.0982
20687NA      NA63210   4.967   8.593   7.198  0.3204 -0.1814  0.1034
20688NA      NA63211   5.794   7.658   6.984  0.0685 -0.2427 -0.3314
20689NA      NA63212   5.594   0.571   6.971  0.2380 -0.1084 -0.2607
20690NA      NA63213   7.671   0.492   0.113  0.1203 -0.2840  0.0159
20691NA      NA63214   6.429   4.317   5.152 -0.5043  0.5435  0.0766
20692NA      NA63215   6.134   6.938   7.878 -0.3719 -0.5225  0.0772
20693NA      NA63216   8.197   1.557   5.288 -0.0261  0.5305 -0.6010
20694NA      NA63217   6.756   8.078   1.172 -0.6424  0.1123  0.0437
20695NA      NA63218   6.762   5.320   0.637 -0.5259  0.3170 -0.8092
20696NA      NA63219   6.575   8.151   1.386  0.1828 -0.0507  0.1542
20697NA      NA63220   7.893   0.504   8.521 -0.0279 -0.9082 -0.5782
20698NA      NA63221   7.074   8.022   1.169  0.1685  0.2529 -0.2146
20699NA      NA63222   4.196   3.951   4.359  0.2808  0.3544  0.0373
20700NA      NA63223   2.581   1.352   2.742 -0.0483 -0.2858  0.8268
20701NA      NA63224   7.083   8.588   6.756  0.5845 -0.1970 -0.0051
20702NA      NA63225   5.799   7.235   8.449  0.5656 -0.4220  0.7046
20703NA      NA63226   8.370   3.671   1.977  0.3247  0.1046  0.7266
20704NA      NA63227   5.914   7.453   0.007 -0.4216 -0.2529 -0.2719
20705NA      NA63228   1.080   8.176   2.902  0.0302  0.6519  0.0456
20706NA      NA63229   7.157   0.090   7.020 -0.4329  0.0561 -0.3586
20707NA      NA63230   1.946   1.240   5.804  0.0663  0.0423  0.2641
20708NA      NA63231   7.124   0.066   8.076 -0.4260  0.2564  0.0371
20709NA      NA63232   8.548   0.461   1.085 -0.0915 -0.3193  0.6943
20710NA      NA63233   5.282   7.690   7.727  0.2488 -0.3479 -0.4696
20711NA      NA63234   5.272   0.138   6.982 -0.0677  0.3501 -0.4845
20712NA      NA63235   2.886   6.727   3.348  0.9330  0.4645 -0.4497
20713NA      NA63236   5.953   3.345   0.576  0.0628 -0.4729  0.0176
20714NA      NA63237   2.730   8.241   4.649  0.1569  0.0862 -0.2048
20715NA      NA63238   6.597   8.338   1.080 -0.1119 -0.0812  0.1360
20716NA      NA63239   2.168   1.032   1.165  0.2263 -0.3776  0.6007
20717NA      NA63240   7.671   8.051   8.340 -0.3525 -0.0892 -0.2618
20718NA      NA63241   5.966   6.857   8.102  0.2531  0.0773  0.0072
20719NA      NA63242   8.550   0.751   1.028  0.7562 -0.3192 -0.3855
20720NA      NA63243   6.619   3.387   7.556  0.1182  0.3721  0.3539
20721NA      NA63244   7.742   3.610   7.155  0.5844  0.0050 -0.5327
20722NA      NA63245   3.131   0.740   1.132  0.4104  0.4704  0.0200
20723NA      NA63246   5.218   8.459   7.090  0.8997  0.0638 -0.1859
20724NA      NA63247   5.113   7.881   7.986 -0.3139  0.3219 -0.3121
20725NA      NA63248   3.561   8.187   0.038 -0.3880 -0.5477 -0.6550
20726NA      NA63249   3.659   0.507   2.191 -0.4073 -0.3639 -0.1953
20727NA      NA63250   0.544   7.419   0.756 -0.0838 -0.1385 -0.4600
20728NA      NA63251   4.605   5.855   4.382  0.0615  0.4775 -0.2763
20729NA      NA63252   5.227   4.201   2.931  0.1619  0.4621  0.2707
20730NA      NA63253   5.847   5.630   0.781  0.5131  0.1548 -0.0920
20731NA      NA63254   2.288   1.876   0.437 -0.4846  0.1009 -0.6373
20732NA      NA63255   4.964   8.356   6.994  0.0836 -0.3950 -0.1801
20733NA      NA63256   3.812   2.802   6.628  0.0140 -0.0498  0.0503
20734NA      NA63257   2.319   2.773   5.001 -0.5113 -0.2646  0.2041
20735NA      NA63258   4.951   8.069   7.091 -0.6051  0.6634  0.6215
20736NA      NA63259   5.415   7.899   7.904  0.2601 -0.1955  0.1992
20737NA      NA63260   6.415   7.156   1.118 -0.3585  0.0464  0.2067
20738NA      NA63261   7.278   0.268   7.399 -0.6395  0.5422  0.1507
20739NA      NA63262   7.120   8.181   8.198  0.8968 -0.0725  0.1072
20740NA      NA63263   6.828   6.028   5.321 -0.5129  0.3496 -0.0982
20741NA      NA63264   7.542   7.230   8.256 -0.0849 -0.2761 -0.2565
20742NA      NA63265   7.511   7.000   8.495  0.2758 -0.0179  0.4736
20743NA      NA63266   7.235   4.603   8.238 -0.0183 -0.1325  0.2572
20744NA      NA63267   5.854   8.146   6.339 -0.4681  0.2130  0.1763
20745NA      NA63268   7.169   1.536   6.881 -0.1628  0.1597 -0.4529
20746NA      NA63269   3.368   3.942   0.258 -0.4957 -0.2263 -0.3264
20747NA      NA63270   5.759   7.258   0.145 -0.0688  0.3464 -0.1037
20748NA      NA63271   6.998   0.253   7.520 -0.0342 -0.2616 -0.2490
20749NA      NA63272   3.889   4.629   1.873  0.4787  0.0847 -0.1973
20750NA      NA63273   0.865   1.041   4.696  0.2052  0.2011 -0.4875
20751NA      NA63274   0.953   2.453   1.859  0.6019  0.0812  0.3980
20752NA      NA63275   7.894   6.561   6.492 -0.0150  0.0424 -0.2092
20753NA      NA63276   6.655   8.272   6.690  0.3536 -0.1015  0.1119
20754NA      NA63277   6.575   3.947   1.876  0.2455  0.2073  0.5157
20755NA      NA63278   3.613   5.393   5.712 -0.3170 -0.1299 -0.0039
20756NA      NA63279   3.929   0.169   8.603 -0.2700 -0.2321  0.4375
20757NA      NA63280   2.350   1.859   5.527 -0.1896 -0.2023  0.5743
20758NA      NA63281   4.304   6.627   6.940  0.0197 -0.3585  0.3046
20759NA      NA63282   5.530   0.278   6.839 -0.1834 -0.3118  0.2498
20760NA      NA63283   7.112   0.908   6.628 -0.0318  0.1592 -0.2320
20761NA      NA63284   5.614   7.514   7.191  0.2510  0.1911  0.4650
20762NA      NA63285   0.718   4.186   8.378  0.0504  0.3140  0.2526
20763NA      NA63286   8.528   1.016   0.338  0.4314 -0.0065 -0.1088
20764NA      NA63287   7.658   7.510   8.272  0.1616 -0.1644  0.1819
20765NA      NA63288   2.043   6.435   0.216 -0.3062  0.0723 -0.3995
20766NA      NA63289   3.744   1.564   4.428 -0.4554  0.3209 -0.0637
20767NA      NA63290   6.362   5.242   0.121 -0.5767  0.4212  0.2388
20768NA      NA63291   2.244   7.620   5.265 -0.2668 -0.0580 -0.2331
20769NA      NA63292   7.288   2.827   8.228 -0.7002 -0.0570  0.0599
20770NA      NA63293   7.421   8.197   8.120 -0.4288  0.2653  0.2347
20771NA      NA63294   4.812   7.732   1.047  0.1745 -0.3003 -0.4223
20772CL      CL63295   2.889   5.566   2.871 -0.2255 -0.4287 -0.2068
20773CL      CL63296   6.943   5.067   0.167 -0.0787  0.2056 -0.3857
20774CL      CL63297   1.983   6.981   3.729  0.3006 -0.2374  0.0926
20775CL      CL63298   3.660   5.266   1.455  0.6438 -0.1408  0.0781
20776CL      CL63299   7.341   3.255   8.406  0.2290 -0.1902 -0.1401
20777CL      CL63300   2.129   2.923   5.469  0.1903 -0.1149  0.1030
20778CL      CL63301   5.331   6.081   7.204 -0.2458 -0.1689 -0.0221
20779CL      CL63302   4.397   7.196   7.324 -0.1405  0.0777 -0.0457
20780CL      CL63303   5.288   7.846   1.029 -0.0853  0.0310  0.4681
20781CL      CL63304   7.964   4.832   8.516  0.5558  0.1219  0.3811
20782CL      CL63305   1.734   2.834   2.936  0.2203  0.0349  0.2446
20783CL      CL63306   2.362   1.501   2.331 -0.2122 -0.3567 -0.2191
20784CL      CL63307   8.010   0.589   8.321  0.0185  0.1504  0.2849
20785CL      CL63308   7.115   4.911   5.412 -0.0521  0.2626  0.2554
20786CL      CL63309   7.930   7.378   1.626 -0.0763  0.2812  0.0963
20787CL      CL63310   4.675   0.292   3.653 -0.1068 -0.0905  0.0234
20788CL      CL63311   2.342   6.882   7.514  0.1376 -0.1229  0.3854
20789CL      CL63312   7.517   2.678   5.338  0.2497  0.5230  0.2400
20790CL      CL63313   3.018   1.837   5.160 -0.1968 -0.2212  0.2442
20791CL      CL63314   0.115   0.072   2.722 -0.2280  0.4333 -0.4154
20792CL      CL63315   4.944   7.271   1.356  0.2247  0.0833 -0.1746
20793CL      CL63316   4.094   1.801   4.281 -0.3467  0.3791 -0.1840
20794CL      CL63317   7.783   8.600   1.943 -0.0666  0.2261  0.0956
20795CL      CL63318   6.525   5.736   5.211  0.2144 -0.3525 -0.0413
20796CL      CL63319   0.524   3.372   3.281 -0.0538  0.0222 -0.5664
20797CL      CL63320   3.634   7.761   4.374 -0.3232 -0.1624  0.1513
20798CL      CL63321   4.567   3.310   8.137  0.1596 -0.0702 -0.0378
20799CL      CL63322   3.512   7.866   0.438  0.1751 -0.5713  0.3272
20800CL      CL63323   4.145   8.114   6.244  0.0040 -0.3836  0.1200
20801CL      CL63324   7.713   0.461   6.941 -0.3053 -0.1728 -0.2990
20802CL      CL63325   5.613   3.412   7.761  0.2796 -0.3471 -0.2212
20803CL      CL63326   5.695   7.794   1.795 -0.2405 -0.1209  0.0884
20804CL      CL63327   2.423   1.949   8.547 -0.4068  0.3850  0.3816
20805CL      CL63328   4.042   6.750   3.457 -0.0787  0.1752 -0.3603
20806CL      CL63329   2.009   5.711   0.503 -0.1609 -0.0328  0.2943
20807CL      CL63330   7.321   5.459   4.051 -0.0664  0.3058  0.2137
20808CL      CL63331   4.090   2.459   6.381 -0.1025 -0.8162 -0.2555
20809CL      CL63332   5.641   0.152   3.026 -0.1345  0.1647 -0.2112
20810CL      CL63333   5.145   5.405   2.883  0.0512  0.0595  0.1840
20811CL      CL63334   4.390   8.340   0.292 -0.0944 -0.2312  0.0224
20812CL      CL63335   3.382   4.117   7.382  0.2272  0.2136 -0.0342
20813CL      CL63336   2.762   7.796   4.577 -0.2117 -0.1194  0.2035
20814CL      CL63337   7.318   2.305   3.662  0.0339  0.2615 -0.1634
20815CL      CL63338   8.158   1.375   0.363 -0.0504 -0.0830  0.2203
20816CL      CL63339   0.810   5.626   5.937  0.5150 -0.2017  0.1576
20817CL      CL63340   7.521   3.494   7.164 -0.2835 -0.1209 -0.3775
20818CL      CL63341   1.910   4.133   2.821  0.0579 -0.6953  0.0448
20819CL      CL63342   8.550   0.746   4.050 -0.4000 -0.0759  0.1575
20820CL      CL63343   1.214   8.487   5.052  0.0507 -0.1550 -0.0181
20821CL      CL63344   0.837   0.506   4.285 -0.0710 -0.0762  0.5301
20822CL      CL63345   2.192   4.174   1.676 -0.4384  0.0370 -0.6759
20823CL      CL63346   6.656   5.515   0.715 -0.1456 -0.4650  0.4676
20824CL      CL63347   4.690   6.872   4.326 -0.1451 -0.0348 -0.4067
20825CL      CL63348   2.301   7.954   7.689  0.1958  0.0608 -0.0513
20826CL      CL63349   2.769   2.490   4.205  0.2399 -0.0679  0.4492
20827CL      CL63350   7.036   3.042   1.349 -0.5757 -0.2850  0.0582
20828CL      CL63351   7.265   1.724   6.380 -0.2928 -0.4222 -0.1618
20829CL      CL63352   3.019   1.176   6.860  0.1358  0.4448  0.0842
20830CL      CL63353   3.361   0.358   1.822  0.3339 -0.1578  0.2366
   8.60507   8.60507   8.60507
